 Entering Gaussian System, Link 0=g16
 Input=freq_15_1_s1.com
 Output=freq_15_1_s1.log
 Initial command:
 /home/software/g16-shuai/g16/l1.exe "/tmp/zgshuai_229528/g16_tmp/Gau-655430.inp" -scrdir="/tmp/zgshuai_229528/g16_tmp/"
 Entering Link 1 = /home/software/g16-shuai/g16/l1.exe PID=    655431.
  
 Copyright (c) 1988-2019, Gaussian, Inc.  All Rights Reserved.
  
 This is part of the Gaussian(R) 16 program.  It is based on
 the Gaussian(R) 09 system (copyright 2009, Gaussian, Inc.),
 the Gaussian(R) 03 system (copyright 2003, Gaussian, Inc.),
 the Gaussian(R) 98 system (copyright 1998, Gaussian, Inc.),
 the Gaussian(R) 94 system (copyright 1995, Gaussian, Inc.),
 the Gaussian 92(TM) system (copyright 1992, Gaussian, Inc.),
 the Gaussian 90(TM) system (copyright 1990, Gaussian, Inc.),
 the Gaussian 88(TM) system (copyright 1988, Gaussian, Inc.),
 the Gaussian 86(TM) system (copyright 1986, Carnegie Mellon
 University), and the Gaussian 82(TM) system (copyright 1983,
 Carnegie Mellon University). Gaussian is a federally registered
 trademark of Gaussian, Inc.
  
 This software contains proprietary and confidential information,
 including trade secrets, belonging to Gaussian, Inc.
  
 This software is provided under written license and may be
 used, copied, transmitted, or stored only in accord with that
 written license.
  
 The following legend is applicable only to US Government
 contracts under FAR:
  
                    RESTRICTED RIGHTS LEGEND
  
 Use, reproduction and disclosure by the US Government is
 subject to restrictions as set forth in subparagraphs (a)
 and (c) of the Commercial Computer Software - Restricted
 Rights clause in FAR 52.227-19.
  
 Gaussian, Inc.
 340 Quinnipiac St., Bldg. 40, Wallingford CT 06492
  
  
 ---------------------------------------------------------------
 Warning -- This program may not be used in any manner that
 competes with the business of Gaussian, Inc. or will provide
 assistance to any competitor of Gaussian, Inc.  The licensee
 of this program is prohibited from giving any competitor of
 Gaussian, Inc. access to this program.  By using this program,
 the user acknowledges that Gaussian, Inc. is engaged in the
 business of creating and licensing software in the field of
 computational chemistry and represents and warrants to the
 licensee that it is not a competitor of Gaussian, Inc. and that
 it will not use this program in any manner prohibited above.
 ---------------------------------------------------------------
  

 Cite this work as:
 Gaussian 16, Revision C.01,
 M. J. Frisch, G. W. Trucks, H. B. Schlegel, G. E. Scuseria, 
 M. A. Robb, J. R. Cheeseman, G. Scalmani, V. Barone, 
 G. A. Petersson, H. Nakatsuji, X. Li, M. Caricato, A. V. Marenich, 
 J. Bloino, B. G. Janesko, R. Gomperts, B. Mennucci, H. P. Hratchian, 
 J. V. Ortiz, A. F. Izmaylov, J. L. Sonnenberg, D. Williams-Young, 
 F. Ding, F. Lipparini, F. Egidi, J. Goings, B. Peng, A. Petrone, 
 T. Henderson, D. Ranasinghe, V. G. Zakrzewski, J. Gao, N. Rega, 
 G. Zheng, W. Liang, M. Hada, M. Ehara, K. Toyota, R. Fukuda, 
 J. Hasegawa, M. Ishida, T. Nakajima, Y. Honda, O. Kitao, H. Nakai, 
 T. Vreven, K. Throssell, J. A. Montgomery, Jr., J. E. Peralta, 
 F. Ogliaro, M. J. Bearpark, J. J. Heyd, E. N. Brothers, K. N. Kudin, 
 V. N. Staroverov, T. A. Keith, R. Kobayashi, J. Normand, 
 K. Raghavachari, A. P. Rendell, J. C. Burant, S. S. Iyengar, 
 J. Tomasi, M. Cossi, J. M. Millam, M. Klene, C. Adamo, R. Cammi, 
 J. W. Ochterski, R. L. Martin, K. Morokuma, O. Farkas, 
 J. B. Foresman, and D. J. Fox, Gaussian, Inc., Wallingford CT, 2019.
 
 ******************************************
 Gaussian 16:  ES64L-G16RevC.01  3-Jul-2019
                 8-Feb-2026 
 ******************************************
 %nprocshared=56
 Will use up to   56 processors via shared memory.
 %mem=120GB
 %chk=s1_opt.chk
 ----------------------------------------------------------------------
 #p td(singlet,nstate=10) freq TPSSh/def2svp scrf=solvent=CH2Cl2 empiri
 caldispersion=gd3bj IOp(3/174=1000000,3/175=2238200,3/177=452900,3/178
 =4655000) nosymm
 ----------------------------------------------------------------------
 1/10=4,30=1,38=1/1,3;
 2/12=2,15=1,17=6,18=5,40=1/2;
 3/5=43,7=101,11=9,25=1,30=1,70=2201,71=2,72=9,74=-35,124=41,140=1,174=1000000,175=2238200,177=452900,178=4655000/1,2,3,8;
 4//1;
 5/5=2,38=5,53=9,98=1/2;
 8/6=1,10=1,108=10/1;
 9/15=3,41=10,42=1,48=1,70=2/14;
 10/5=2004,20=4,31=1/2;
 11/6=1,8=1,12=-1,16=1,31=1,42=3/1,2,10;
 10/6=3,21=1,31=1/2,14;
 6/7=2,8=2,9=2,10=2/1;
 7/8=1,10=1,12=6,13=8,25=1,30=1,44=2/1,2,3,16;
 1/10=4,30=1/3;
 99//99;
 Leave Link    1 at Sun Feb  8 22:34:11 2026, MaxMem= 16106127360 cpu:               1.2 elap:               0.0
 (Enter /home/software/g16-shuai/g16/l101.exe)
 ------------
 test2-s1freq
 ------------
 Symbolic Z-matrix:
 Charge =  0 Multiplicity = 1
 Pt                    0.48611  -0.37955  -0.0188 
 C                     0.50179   1.52731   0.00671 
 C                    -0.73757   2.2481   -0.00762 
 C                     1.75258   2.22716   0.03275 
 C                    -0.72872   3.63678   0.00335 
 C                     1.76652   3.61547   0.04375 
 C                     0.5242    4.29177   0.02929 
 H                    -1.64834   4.22254  -0.0077 
 H                     2.69554   4.18587   0.06238 
 H                     0.5334    5.38358   0.03786 
 C                     2.50038  -0.03556   0.01938 
 C                     4.75315   0.28761   0.06295 
 H                     5.79587  -0.01618   0.07777 
 C                    -1.52166  -0.00216  -0.04465 
 C                    -3.76911   0.35911  -0.06723 
 H                    -4.81681   0.07297  -0.08234 
 Cl                    0.46787  -2.83936  -0.01991 
 C                     3.9233   -2.08902   0.01428 
 H                     4.48549  -2.40205   0.90663 
 H                     2.93731  -2.57051   0.00775 
 H                     4.48481  -2.37833  -0.88673 
 C                    -2.97831  -2.03137  -0.08394 
 H                    -2.0005   -2.52918  -0.06958 
 H                    -3.56235  -2.33205   0.79866 
 H                    -3.52741  -2.31454  -0.99442 
 N                     2.82399   1.34407   0.04138 
 N                     3.72117  -0.64878   0.03416 
 N                    -2.75273  -0.59463  -0.065 
 N                    -1.82275   1.38333  -0.03345 
 C                    -3.19754   1.59305  -0.04768 
 C                     4.20188   1.5309    0.06765 
 H                    -3.64505   2.5816   -0.04225 
 H                     4.66582   2.51171   0.08789 
 
 ITRead=  0  0  0  0  0  0  0  0  0  0  0  0  0  0  0  0  0  0  0  0
 ITRead=  0  0  0  0  0  0  0  0  0  0  0  0  0
 MicOpt= -1 -1 -1 -1 -1 -1 -1 -1 -1 -1 -1 -1 -1 -1 -1 -1 -1 -1 -1 -1
 MicOpt= -1 -1 -1 -1 -1 -1 -1 -1 -1 -1 -1 -1 -1
 NAtoms=     33 NQM=       33 NQMF=       0 NMMI=      0 NMMIF=      0
                NMic=       0 NMicF=      0.
                    Isotopes and Nuclear Properties:
 (Nuclear quadrupole moments (NQMom) in fm**2, nuclear magnetic moments (NMagM)
  in nuclear magnetons)

  Atom         1           2           3           4           5           6           7           8           9          10
 IAtWgt=         195          12          12          12          12          12          12           1           1           1
 AtmWgt= 194.9648000  12.0000000  12.0000000  12.0000000  12.0000000  12.0000000  12.0000000   1.0078250   1.0078250   1.0078250
 NucSpn=           1           0           0           0           0           0           0           1           1           1
 AtZEff=  -0.0000000  -0.0000000  -0.0000000  -0.0000000  -0.0000000  -0.0000000  -0.0000000  -0.0000000  -0.0000000  -0.0000000
 NQMom=    0.0000000   0.0000000   0.0000000   0.0000000   0.0000000   0.0000000   0.0000000   0.0000000   0.0000000   0.0000000
 NMagM=    0.6095000   0.0000000   0.0000000   0.0000000   0.0000000   0.0000000   0.0000000   2.7928460   2.7928460   2.7928460
 AtZNuc=  78.0000000   6.0000000   6.0000000   6.0000000   6.0000000   6.0000000   6.0000000   1.0000000   1.0000000   1.0000000

  Atom        11          12          13          14          15          16          17          18          19          20
 IAtWgt=          12          12           1          12          12           1          35          12           1           1
 AtmWgt=  12.0000000  12.0000000   1.0078250  12.0000000  12.0000000   1.0078250  34.9688527  12.0000000   1.0078250   1.0078250
 NucSpn=           0           0           1           0           0           1           3           0           1           1
 AtZEff=  -0.0000000  -0.0000000  -0.0000000  -0.0000000  -0.0000000  -0.0000000  -0.0000000  -0.0000000  -0.0000000  -0.0000000
 NQMom=    0.0000000   0.0000000   0.0000000   0.0000000   0.0000000   0.0000000  -8.1650000   0.0000000   0.0000000   0.0000000
 NMagM=    0.0000000   0.0000000   2.7928460   0.0000000   0.0000000   2.7928460   0.8218740   0.0000000   2.7928460   2.7928460
 AtZNuc=   6.0000000   6.0000000   1.0000000   6.0000000   6.0000000   1.0000000  17.0000000   6.0000000   1.0000000   1.0000000

  Atom        21          22          23          24          25          26          27          28          29          30
 IAtWgt=           1          12           1           1           1          14          14          14          14          12
 AtmWgt=   1.0078250  12.0000000   1.0078250   1.0078250   1.0078250  14.0030740  14.0030740  14.0030740  14.0030740  12.0000000
 NucSpn=           1           0           1           1           1           2           2           2           2           0
 AtZEff=  -0.0000000  -0.0000000  -0.0000000  -0.0000000  -0.0000000  -0.0000000  -0.0000000  -0.0000000  -0.0000000  -0.0000000
 NQMom=    0.0000000   0.0000000   0.0000000   0.0000000   0.0000000   2.0440000   2.0440000   2.0440000   2.0440000   0.0000000
 NMagM=    2.7928460   0.0000000   2.7928460   2.7928460   2.7928460   0.4037610   0.4037610   0.4037610   0.4037610   0.0000000
 AtZNuc=   1.0000000   6.0000000   1.0000000   1.0000000   1.0000000   7.0000000   7.0000000   7.0000000   7.0000000   6.0000000

  Atom        31          32          33
 IAtWgt=          12           1           1
 AtmWgt=  12.0000000   1.0078250   1.0078250
 NucSpn=           0           1           1
 AtZEff=  -0.0000000  -0.0000000  -0.0000000
 NQMom=    0.0000000   0.0000000   0.0000000
 NMagM=    0.0000000   2.7928460   2.7928460
 AtZNuc=   6.0000000   1.0000000   1.0000000
 Leave Link  101 at Sun Feb  8 22:34:11 2026, MaxMem= 16106127360 cpu:               3.5 elap:               0.1
 (Enter /home/software/g16-shuai/g16/l103.exe)

 GradGradGradGradGradGradGradGradGradGradGradGradGradGradGradGradGradGrad
 Berny optimization.
 Initialization pass.
 Trust Radius=3.00D-01 FncErr=1.00D-07 GrdErr=1.00D-07 EigMax=2.50D+02 EigMin=1.00D-04
 Number of steps in this run=      2 maximum allowed number of steps=      2.
 GradGradGradGradGradGradGradGradGradGradGradGradGradGradGradGradGradGrad

 Leave Link  103 at Sun Feb  8 22:34:11 2026, MaxMem= 16106127360 cpu:               0.7 elap:               0.0
 (Enter /home/software/g16-shuai/g16/l202.exe)
                          Input orientation:                          
 ---------------------------------------------------------------------
 Center     Atomic      Atomic             Coordinates (Angstroms)
 Number     Number       Type             X           Y           Z
 ---------------------------------------------------------------------
      1         78           0        0.486110   -0.379550   -0.018800
      2          6           0        0.501790    1.527310    0.006710
      3          6           0       -0.737570    2.248100   -0.007620
      4          6           0        1.752580    2.227160    0.032750
      5          6           0       -0.728720    3.636780    0.003350
      6          6           0        1.766520    3.615470    0.043750
      7          6           0        0.524200    4.291770    0.029290
      8          1           0       -1.648340    4.222540   -0.007700
      9          1           0        2.695540    4.185870    0.062380
     10          1           0        0.533400    5.383580    0.037860
     11          6           0        2.500380   -0.035560    0.019380
     12          6           0        4.753150    0.287610    0.062950
     13          1           0        5.795870   -0.016180    0.077770
     14          6           0       -1.521660   -0.002160   -0.044650
     15          6           0       -3.769110    0.359110   -0.067230
     16          1           0       -4.816810    0.072970   -0.082340
     17         17           0        0.467870   -2.839360   -0.019910
     18          6           0        3.923300   -2.089020    0.014280
     19          1           0        4.485490   -2.402050    0.906630
     20          1           0        2.937310   -2.570510    0.007750
     21          1           0        4.484810   -2.378330   -0.886730
     22          6           0       -2.978310   -2.031370   -0.083940
     23          1           0       -2.000500   -2.529180   -0.069580
     24          1           0       -3.562350   -2.332050    0.798660
     25          1           0       -3.527410   -2.314540   -0.994420
     26          7           0        2.823990    1.344070    0.041380
     27          7           0        3.721170   -0.648780    0.034160
     28          7           0       -2.752730   -0.594630   -0.065000
     29          7           0       -1.822750    1.383330   -0.033450
     30          6           0       -3.197540    1.593050   -0.047680
     31          6           0        4.201880    1.530900    0.067650
     32          1           0       -3.645050    2.581600   -0.042250
     33          1           0        4.665820    2.511710    0.087890
 ---------------------------------------------------------------------
                    Distance matrix (angstroms):
                    1          2          3          4          5
     1  Pt   0.000000
     2  C    1.907095   0.000000
     3  C    2.898631   1.433791   0.000000
     4  C    2.898541   1.433507   2.490565   0.000000
     5  C    4.196095   2.442136   1.388752   2.853900   0.000000
     6  C    4.195658   2.441583   2.853560   1.388424   2.495658
     7  C    4.671723   2.764643   2.402085   2.402404   1.414034
     8  H    5.072990   3.447830   2.174377   3.943277   1.090384
     9  H    5.072596   3.447257   3.942854   2.174074   3.468507
    10  H    5.763603   3.856525   3.383588   3.383698   2.155330
    11  C    2.043788   2.537141   3.962342   2.383125   4.890135
    12  C    4.319655   4.428779   5.830652   3.572980   6.424281
    13  H    5.323055   5.514952   6.915207   4.624153   7.477963
    14  C    2.043094   2.536980   2.383241   3.961882   3.724640
    15  C    4.319127   4.428402   3.572404   5.829980   4.471250
    16  H    5.322572   5.514575   4.623524   6.914526   5.424073
    17  Cl   2.459878   4.366883   5.228335   5.227129   6.585800
    18  C    3.838966   4.978416   6.366694   4.831333   7.377411
    19  H    4.576239   5.667415   7.052666   5.446288   8.029406
    20  H    3.287764   4.766958   6.060031   4.941847   7.209039
    21  H    4.553902   5.649487   7.032065   5.433329   8.009662
    22  C    3.838614   4.978305   4.831211   6.366319   6.098869
    23  H    3.287357   4.766800   4.941785   6.059608   6.296174
    24  H    4.568427   5.660307   5.441254   7.044253   6.654991
    25  H    4.561180   5.656547   5.438259   7.039916   6.651798
    26  N    2.905197   2.329676   3.674831   1.388467   4.228441
    27  N    3.246676   3.885940   5.317332   3.485166   6.178066
    28  N    3.246302   3.885830   3.485007   5.316942   4.691068
    29  N    2.904960   2.329341   1.387844   3.674155   2.505253
    30  C    4.178668   3.700314   2.546006   4.991218   3.205387
    31  C    4.179024   3.700594   4.991814   2.546579   5.361873
    32  H    5.082858   4.279043   2.926749   5.409775   3.101687
    33  H    5.083379   4.279577   5.410659   2.927623   5.511260
                    6          7          8          9         10
     6  C    0.000000
     7  C    1.414549   0.000000
     8  H    3.468782   2.173957   0.000000
     9  H    1.090313   2.174173   4.344600   0.000000
    10  H    2.155651   1.091882   2.471857   2.471833   0.000000
    11  C    3.724133   4.757223   5.945084   4.226158   5.765105
    12  C    4.471575   5.823955   7.514502   4.407969   6.616331
    13  H    5.424546   6.808178   8.566815   5.222021   7.540066
    14  C    4.889498   4.756979   4.226760   5.944395   5.765091
    15  C    6.423348   5.823027   4.407641   7.513494   6.615734
    16  H    7.476994   6.807138   5.221466   8.565763   7.539348
    17  Cl   6.584480   7.131522   7.372172   7.370423   8.223404
    18  C    6.098670   7.229702   8.418993   6.394056   8.205591
    19  H    6.659422   7.827437   9.074418   6.878762   8.774384
    20  H    6.295903   7.274232   8.195972   6.760925   8.309467
    21  H    6.646844   7.811258   9.053160   6.869572   8.758753
    22  C    7.376755   7.229281   6.394218   8.418317   8.205390
    23  H    7.208329   7.273874   6.761181   8.195249   8.309270
    24  H    8.021206   7.820921   6.875776   9.065681   8.768405
    25  H    8.016764   7.817088   6.872986   9.060754   8.764521
    26  N    2.505495   3.738732   5.318809   2.844779   4.643755
    27  N    4.690904   5.884698   7.250045   4.942323   6.822848
    28  N    6.177410   5.884222   4.942478   7.249348   6.822626
    29  N    4.227442   3.737798   2.844678   5.317740   4.643116
    30  C    5.361011   4.597865   3.052186   6.439194   5.319337
    31  C    3.205773   4.598826   6.440161   3.052532   5.319941
    32  H    5.510116   4.506933   2.584711   6.541232   5.031596
    33  H    3.102608   4.508333   6.542530   2.585627   5.032597
                   11         12         13         14         15
    11  C    0.000000
    12  C    2.276249   0.000000
    13  H    3.296064   1.086174   0.000000
    14  C    4.022688   6.282419   7.318567   0.000000
    15  C    6.282497   8.523554   9.573438   2.276413   0.000000
    16  H    7.318702   9.573469  10.614262   3.296222   1.086177
    17  Cl   3.463226   5.305510   6.030545   3.465335   5.308903
    18  C    2.498284   2.517815   2.794139   5.831470   8.072989
    19  H    3.213744   2.831556   2.845431   6.538368   8.758472
    20  H    2.572356   3.386617   3.834171   5.146026   7.318768
    21  H    3.201182   2.842734   2.868604   6.514059   8.734549
    22  C    5.831807   8.073086   9.004075   2.498213   2.517943
    23  H    5.146258   7.318720   8.192696   2.572108   3.386769
    24  H    6.529766   8.749367   9.667431   3.209981   2.834582
    25  H    6.523480   8.743963   9.662070   3.205027   2.840159
    26  N    1.417246   2.199598   3.268589   4.550210   6.667152
    27  N    1.366230   1.393785   2.169439   5.283143   7.558467
    28  N    5.283450   7.558634   8.569338   1.366370   1.393791
    29  N    4.550329   6.667260   7.746894   1.417873   2.199656
    30  C    5.926480   8.057908   9.137110   2.313715   1.360030
    31  C    2.313272   1.360033   2.221343   5.926364   8.057789
    32  H    6.679793   8.706504   9.792540   3.344339   2.226090
    33  H    3.344011   2.225954   2.768997   6.679971   8.706652
                   16         17         18         19         20
    16  H    0.000000
    17  Cl   6.034352   0.000000
    18  C    9.004058   3.536124   0.000000
    19  H    9.676599   4.146201   1.100152   0.000000
    20  H    8.192831   2.484186   1.097293   1.798117   0.000000
    21  H    9.652774   4.135182   1.100369   1.793517   1.797716
    22  C    2.794339   3.540212   6.902550   7.538365   5.940845
    23  H    3.834443   2.488278   5.940722   6.560275   4.938588
    24  H    2.852008   4.143681   7.530556   8.048869   6.551945
    25  H    2.862629   4.145765   7.522062   8.235789   6.546944
    26  N    7.746795   4.801681   3.604903   4.188395   3.916364
    27  N    8.569224   3.922439   1.454491   2.102224   2.075616
    28  N    2.169428   3.925953   6.841700   7.523474   6.023782
    29  N    3.268613   4.803981   6.713910   7.416653   6.188111
    30  C    2.221234   5.751718   8.016723   8.712088   7.414492
    31  C    9.137003   5.748884   3.631016   4.031429   4.292352
    32  H    2.769089   6.804661   8.893695   9.583466   8.359079
    33  H    9.792686   6.802085   4.660844   4.984766   5.368718
                   21         22         23         24         25
    21  H    0.000000
    22  C    7.514187   0.000000
    23  H    6.538328   1.097330   0.000000
    24  H    8.221889   1.100224   1.797798   0.000000
    25  H    8.013198   1.100304   1.798014   1.793506   0.000000
    26  N    4.180427   6.713865   6.187898   7.407609   7.402607
    27  N    2.102981   6.841676   6.023635   7.514487   7.508305
    28  N    7.499254   1.454464   2.075658   2.102385   2.102865
    29  N    7.393476   3.605280   3.916712   4.186008   4.183727
    30  C    8.688749   3.631225   4.292571   4.031847   4.034153
    31  C    4.033977   8.016725   7.414351   8.702875   8.698122
    32  H    9.560788   4.661091   5.368926   4.985772   4.989254
    33  H    4.989503   8.893921   8.359138   9.574444   9.570429
                   26         27         28         29         30
    26  N    0.000000
    27  N    2.185506   0.000000
    28  N    5.905055   6.474886   0.000000
    29  N    4.647508   5.905006   2.185906   0.000000
    30  C    6.027333   7.273311   2.232510   1.390767   0.000000
    31  C    1.390747   2.232310   7.273381   6.027285   7.400580
    32  H    6.586877   8.043780   3.299271   2.180987   1.085139
    33  H    2.181257   3.299083   8.044104   6.587071   7.918001
                   31         32         33
    31  C    0.000000
    32  H    7.917724   0.000000
    33  H    1.085190   8.312183   0.000000
 Symmetry turned off by external request.
 Stoichiometry    C14H13ClN4Pt
 Framework group  C1[X(C14H13ClN4Pt)]
 Deg. of freedom    93
 Full point group                 C1      NOp   1
 Rotational constants (GHZ):           0.3798972           0.2734021           0.1593116
 Leave Link  202 at Sun Feb  8 22:34:11 2026, MaxMem= 16106127360 cpu:               0.1 elap:               0.0
 (Enter /home/software/g16-shuai/g16/l301.exe)
 Standard basis: def2SVP (5D, 7F)
 Ernie: Thresh=  0.10000D-02 Tol=  0.10000D-05 Strict=F.
   367 basis functions,   643 primitive gaussians,   391 cartesian basis functions
    80 alpha electrons       80 beta electrons
       nuclear repulsion energy      1851.4509029416 Hartrees.
 IExCor= 2523 DFT=T Ex+Corr=TPSSh ExCW=0 ScaHFX=  0.100000
 ScaDFX=  0.900000  0.900000  1.000000  1.000000 ScalE2=  1.000000  1.000000
 IRadAn=      5 IRanWt=     -1 IRanGd=            0 ICorTp=0 IEmpDi=141
 NAtoms=   33 NActive=   33 NUniq=   33 SFac= 1.00D+00 NAtFMM=   60 NAOKFM=F Big=F
 Integral buffers will be    131072 words long.
 Regular integral format.
 Two-electron integral symmetry is turned off.
 R6DIni: Non-standard D2/D3 S6 parameter, value=     1.000000
 R6DIni: Non-standard D2/D3 S8 parameter, value=     2.238200
 R6DIni: Non-standard D3BJ A1 parameter, value=     0.452900
 R6DIni: Non-standard D3BJ A2 parameter, value=     4.655000
 R6Disp:  Grimme-D3(BJ) Dispersion energy=       -0.0620186923 Hartrees.
 Nuclear repulsion after empirical dispersion term =     1851.3888842493 Hartrees.
 Force inversion solution in PCM.
 ------------------------------------------------------------------------------
 Polarizable Continuum Model (PCM)
 =================================
 Model                : PCM.
 Atomic radii         : UFF (Universal Force Field).
 Polarization charges : Total charges.
 Charge compensation  : None.
 Solution method      : Matrix inversion.
 Cavity type          : Scaled VdW (van der Waals Surface) (Alpha=1.100).
 Cavity algorithm     : GePol (No added spheres)
                        Default sphere list used, NSphG=   33.
                        Lebedev-Laikov grids with approx.  5.0 points / Ang**2.
                        Smoothing algorithm: York/Karplus (Gamma=1.0000).
                        Polarization charges: spherical gaussians, with
                                              point-specific exponents (IZeta= 3).
                        Self-potential: point-specific (ISelfS= 7).
                        Self-field    : sphere-specific E.n sum rule (ISelfD= 2).
 1st derivatives      : Analytical E(r).r(x)/FMM algorithm (CHGder, D1EAlg=3).
                        Cavity 1st derivative terms included.
 2nd derivatives      : Analytical E(r).r(xy)/FMM algorithm (CHGder, D2EAlg=3).
                        Cavity 2nd derivative terms included.
 Solvent              : Dichloromethane, Eps=   8.930000 Eps(inf)=   2.028346
 ------------------------------------------------------------------------------
 GePol: Number of generator spheres                  =      33
 GePol: Total number of spheres                      =      33
 GePol: Number of exposed spheres                    =      33 (100.00%)
 GePol: Number of points                             =    2568
 GePol: Average weight of points                     =       0.13
 GePol: Minimum weight of points                     =   0.46D-10
 GePol: Maximum weight of points                     =    0.21838
 GePol: Number of points with low weight             =     154
 GePol: Fraction of low-weight points (<1% of avg)   =       6.00%
 GePol: Cavity surface area                          =    343.140 Ang**2
 GePol: Cavity volume                                =    377.308 Ang**3
 Leave Link  301 at Sun Feb  8 22:34:11 2026, MaxMem= 16106127360 cpu:               2.4 elap:               0.1
 (Enter /home/software/g16-shuai/g16/l302.exe)
 NPDir=0 NMtPBC=     1 NCelOv=     1 NCel=       1 NClECP=     1 NCelD=      1
         NCelK=      1 NCelE2=     1 NClLst=     1 CellRange=     0.0.
 One-electron integrals computed using PRISM.
   1 Symmetry operations used in ECPInt.
 ECPInt:  NShTT=   14028 NPrTT=   51030 LenC2=   12707 LenP2D=   32467.
 LDataN:  DoStor=T MaxTD1= 8 Len=  415
 NBasis=   367 RedAO= T EigKep=  2.28D-04  NBF=   367
 NBsUse=   367 1.00D-06 EigRej= -1.00D+00 NBFU=   367
 Precomputing XC quadrature grid using
 IXCGrd= 4 IRadAn=           5 IRanWt=          -1 IRanGd=           0 AccXCQ= 0.00D+00.
 Defaulting to unpruned grid for atomic number  78.
 Generated NRdTot=       0 NPtTot=           0 NUsed=           0 NTot=          32
 NSgBfM=   389   389   389   389   389 MxSgAt=    33 MxSgA2=    33.
 Leave Link  302 at Sun Feb  8 22:34:11 2026, MaxMem= 16106127360 cpu:              19.0 elap:               0.4
 (Enter /home/software/g16-shuai/g16/l303.exe)
 DipDrv:  MaxL=1.
 Leave Link  303 at Sun Feb  8 22:34:11 2026, MaxMem= 16106127360 cpu:               1.8 elap:               0.0
 (Enter /home/software/g16-shuai/g16/l308.exe)
 Leave Link  308 at Sun Feb  8 22:34:11 2026, MaxMem= 16106127360 cpu:               2.3 elap:               0.1
 (Enter /home/software/g16-shuai/g16/l401.exe)
 ExpMin= 4.90D-02 ExpMax= 1.04D+04 ExpMxC= 1.57D+03 IAcc=3 IRadAn=         5 AccDes= 0.00D+00
 Harris functional with IExCor= 1009 and IRadAn=       5 diagonalized for initial guess.
 HarFok:  IExCor= 1009 AccDes= 0.00D+00 IRadAn=         5 IDoV= 1 UseB2=F ITyADJ=14
 ICtDFT=  3500011 ScaDFX=  1.000000  1.000000  1.000000  1.000000
 Defaulting to unpruned grid for atomic number  78.
 FoFCou: FMM=F IPFlag=           0 FMFlag=      100000 FMFlg1=           0
         NFxFlg=           0 DoJE=T BraDBF=F KetDBF=T FulRan=T
         wScrn=  0.000000 ICntrl=       500 IOpCl=  0 I1Cent=   200000004 NGrid=           0
         NMat0=    1 NMatS0=      1 NMatT0=    0 NMatD0=    1 NMtDS0=    0 NMtDT0=    0
 Symmetry not used in FoFCou.
 Harris En= -1338.24102427611    
 JPrj=0 DoOrth=F DoCkMO=F.
 Leave Link  401 at Sun Feb  8 22:34:12 2026, MaxMem= 16106127360 cpu:              36.1 elap:               0.7
 (Enter /home/software/g16-shuai/g16/l502.exe)
 Two-electron integral symmetry not used.
 Closed shell SCF:
 Using DIIS extrapolation, IDIIS=  1040.
 NGot= 16106127360 LenX= 16105795799 LenY= 16105642477
 Requested convergence on RMS density matrix=1.00D-08 within 128 cycles.
 Requested convergence on MAX density matrix=1.00D-06.
 Requested convergence on             energy=1.00D-06.
 No special actions if energy rises.
 Fock matrices will be formed incrementally for  20 cycles.

 Cycle   1  Pass 1  IDiag  1:
 FoFJK:  IHMeth= 1 ICntrl=       0 DoSepK=F KAlg= 0 I1Cent=           0 FoldK=F
 IRaf= 850000000 NMat=       1 IRICut=       1 DoRegI=T DoRafI=F ISym2E= 0 IDoP0=0 IntGTp=1.
 FoFCou: FMM=F IPFlag=           0 FMFlag=      100000 FMFlg1=           0
         NFxFlg=           0 DoJE=F BraDBF=F KetDBF=F FulRan=T
         wScrn=  0.000000 ICntrl=         0 IOpCl=  0 I1Cent=           0 NGrid=           0
         NMat0=    1 NMatS0=      1 NMatT0=    0 NMatD0=    1 NMtDS0=    0 NMtDT0=    0
 Symmetry not used in FoFCou.
 Defaulting to unpruned grid for atomic number  78.
 Defaulting to unpruned grid for atomic number  78.
 Defaulting to unpruned grid for atomic number  78.
 Defaulting to unpruned grid for atomic number  78.
 Defaulting to unpruned grid for atomic number  78.
 Defaulting to unpruned grid for atomic number  78.
 Defaulting to unpruned grid for atomic number  78.
 Defaulting to unpruned grid for atomic number  78.
 Defaulting to unpruned grid for atomic number  78.
 Defaulting to unpruned grid for atomic number  78.
 Defaulting to unpruned grid for atomic number  78.
 Defaulting to unpruned grid for atomic number  78.
 Defaulting to unpruned grid for atomic number  78.
 Defaulting to unpruned grid for atomic number  78.
 Defaulting to unpruned grid for atomic number  78.
 Defaulting to unpruned grid for atomic number  78.
 Defaulting to unpruned grid for atomic number  78.
 Defaulting to unpruned grid for atomic number  78.
 Defaulting to unpruned grid for atomic number  78.
 Defaulting to unpruned grid for atomic number  78.
 Defaulting to unpruned grid for atomic number  78.
 Defaulting to unpruned grid for atomic number  78.
 Defaulting to unpruned grid for atomic number  78.
 Defaulting to unpruned grid for atomic number  78.
 Defaulting to unpruned grid for atomic number  78.
 Defaulting to unpruned grid for atomic number  78.
 Defaulting to unpruned grid for atomic number  78.
 Defaulting to unpruned grid for atomic number  78.
 Defaulting to unpruned grid for atomic number  78.
 Defaulting to unpruned grid for atomic number  78.
 Defaulting to unpruned grid for atomic number  78.
 Defaulting to unpruned grid for atomic number  78.
 Defaulting to unpruned grid for atomic number  78.
 Defaulting to unpruned grid for atomic number  78.
 Defaulting to unpruned grid for atomic number  78.
 Defaulting to unpruned grid for atomic number  78.
 Defaulting to unpruned grid for atomic number  78.
 Defaulting to unpruned grid for atomic number  78.
 Defaulting to unpruned grid for atomic number  78.
 Defaulting to unpruned grid for atomic number  78.
 Defaulting to unpruned grid for atomic number  78.
 Defaulting to unpruned grid for atomic number  78.
 Defaulting to unpruned grid for atomic number  78.
 Defaulting to unpruned grid for atomic number  78.
 Defaulting to unpruned grid for atomic number  78.
 Defaulting to unpruned grid for atomic number  78.
 Defaulting to unpruned grid for atomic number  78.
 Defaulting to unpruned grid for atomic number  78.
 Defaulting to unpruned grid for atomic number  78.
 Defaulting to unpruned grid for atomic number  78.
 Defaulting to unpruned grid for atomic number  78.
 Defaulting to unpruned grid for atomic number  78.
 Defaulting to unpruned grid for atomic number  78.
 Defaulting to unpruned grid for atomic number  78.
 Defaulting to unpruned grid for atomic number  78.
 Defaulting to unpruned grid for atomic number  78.
 Inv3:  Mode=1 IEnd=    19783872.
 Iteration    1 A*A^-1 deviation from unit magnitude is 5.44D-15 for   2553.
 Iteration    1 A*A^-1 deviation from orthogonality  is 1.79D-15 for   2563   2525.
 Iteration    1 A^-1*A deviation from unit magnitude is 5.22D-15 for   2553.
 Iteration    1 A^-1*A deviation from orthogonality  is 1.42D-15 for   1727    241.
 E= -1338.34779453734    
 DIIS: error= 6.04D-02 at cycle   1 NSaved=   1.
 NSaved= 1 IEnMin= 1 EnMin= -1338.34779453734     IErMin= 1 ErrMin= 6.04D-02
 ErrMax= 6.04D-02  0.00D+00 EMaxC= 1.00D-01 BMatC= 1.18D+00 BMatP= 1.18D+00
 IDIUse=3 WtCom= 3.96D-01 WtEn= 6.04D-01
 Coeff-Com:  0.100D+01
 Coeff-En:   0.100D+01
 Coeff:      0.100D+01
 Gap=     0.677 Goal=   None    Shift=    0.000
 GapD=    0.677 DampG=2.000 DampE=0.250 DampFc=0.5000 IDamp=-1.
 Damping current iteration by 5.00D-01
 RMSDP=1.22D-02 MaxDP=9.53D-01              OVMax= 7.25D-01

 Cycle   2  Pass 1  IDiag  1:
 RMSU=  6.09D-03    CP:  9.99D-01
 E= -1338.15486085252     Delta-E=        0.192933684818 Rises=F Damp=T
 DIIS: error= 2.19D-02 at cycle   2 NSaved=   2.
 NSaved= 2 IEnMin= 1 EnMin= -1338.34779453734     IErMin= 2 ErrMin= 2.19D-02
 ErrMax= 2.19D-02  0.00D+00 EMaxC= 1.00D-01 BMatC= 3.24D-01 BMatP= 1.18D+00
 IDIUse=3 WtCom= 7.81D-01 WtEn= 2.19D-01
 Coeff-Com:  0.308D+00 0.692D+00
 Coeff-En:   0.552D+00 0.448D+00
 Coeff:      0.362D+00 0.638D+00
 Gap=    -0.092 Goal=   None    Shift=    0.000
 RMSDP=5.61D-03 MaxDP=4.49D-01 DE= 1.93D-01 OVMax= 8.12D-01

 Cycle   3  Pass 1  IDiag  1:
 RMSU=  3.54D-03    CP:  9.72D-01  2.92D-01
 E= -1339.18236448194     Delta-E=       -1.027503629418 Rises=F Damp=F
 DIIS: error= 2.34D-02 at cycle   3 NSaved=   3.
 NSaved= 3 IEnMin= 3 EnMin= -1339.18236448194     IErMin= 2 ErrMin= 2.19D-02
 ErrMax= 2.34D-02  0.00D+00 EMaxC= 1.00D-01 BMatC= 2.11D-01 BMatP= 3.24D-01
 IDIUse=3 WtCom= 7.66D-01 WtEn= 2.34D-01
 Coeff-Com:  0.195D+00 0.405D+00 0.400D+00
 Coeff-En:   0.837D-01 0.000D+00 0.916D+00
 Coeff:      0.169D+00 0.310D+00 0.521D+00
 Gap=     0.175 Goal=   None    Shift=    0.000
 RMSDP=2.41D-03 MaxDP=1.36D-01 DE=-1.03D+00 OVMax= 1.81D-01

 Cycle   4  Pass 1  IDiag  1:
 RMSU=  2.08D-03    CP:  9.70D-01  2.41D-01  6.66D-01
 E= -1339.34166478912     Delta-E=       -0.159300307176 Rises=F Damp=F
 DIIS: error= 1.42D-02 at cycle   4 NSaved=   4.
 NSaved= 4 IEnMin= 4 EnMin= -1339.34166478912     IErMin= 4 ErrMin= 1.42D-02
 ErrMax= 1.42D-02  0.00D+00 EMaxC= 1.00D-01 BMatC= 7.40D-02 BMatP= 2.11D-01
 IDIUse=3 WtCom= 8.58D-01 WtEn= 1.42D-01
 Coeff-Com:  0.198D-01 0.878D-01 0.347D+00 0.545D+00
 Coeff-En:   0.000D+00 0.000D+00 0.274D+00 0.726D+00
 Coeff:      0.170D-01 0.754D-01 0.337D+00 0.571D+00
 Gap=     0.127 Goal=   None    Shift=    0.000
 RMSDP=1.07D-03 MaxDP=6.49D-02 DE=-1.59D-01 OVMax= 7.42D-02

 Cycle   5  Pass 1  IDiag  1:
 RMSU=  6.11D-04    CP:  9.69D-01  2.70D-01  8.06D-01  6.61D-01
 E= -1339.40460753069     Delta-E=       -0.062942741569 Rises=F Damp=F
 DIIS: error= 3.52D-03 at cycle   5 NSaved=   5.
 NSaved= 5 IEnMin= 5 EnMin= -1339.40460753069     IErMin= 5 ErrMin= 3.52D-03
 ErrMax= 3.52D-03  0.00D+00 EMaxC= 1.00D-01 BMatC= 9.51D-03 BMatP= 7.40D-02
 IDIUse=3 WtCom= 9.65D-01 WtEn= 3.52D-02
 Coeff-Com: -0.491D-02 0.115D-01 0.159D+00 0.367D+00 0.467D+00
 Coeff-En:   0.000D+00 0.000D+00 0.000D+00 0.115D+00 0.885D+00
 Coeff:     -0.474D-02 0.111D-01 0.153D+00 0.358D+00 0.482D+00
 Gap=     0.128 Goal=   None    Shift=    0.000
 RMSDP=3.75D-04 MaxDP=2.02D-02 DE=-6.29D-02 OVMax= 2.90D-02

 Cycle   6  Pass 1  IDiag  1:
 RMSU=  1.87D-04    CP:  9.70D-01  2.66D-01  7.80D-01  7.32D-01  5.53D-01
 E= -1339.41346441147     Delta-E=       -0.008856880788 Rises=F Damp=F
 DIIS: error= 1.44D-03 at cycle   6 NSaved=   6.
 NSaved= 6 IEnMin= 6 EnMin= -1339.41346441147     IErMin= 6 ErrMin= 1.44D-03
 ErrMax= 1.44D-03  0.00D+00 EMaxC= 1.00D-01 BMatC= 7.13D-04 BMatP= 9.51D-03
 IDIUse=3 WtCom= 9.86D-01 WtEn= 1.44D-02
 Coeff-Com: -0.171D-02-0.209D-02 0.523D-01 0.143D+00 0.279D+00 0.529D+00
 Coeff-En:   0.000D+00 0.000D+00 0.000D+00 0.000D+00 0.281D-01 0.972D+00
 Coeff:     -0.169D-02-0.206D-02 0.516D-01 0.141D+00 0.276D+00 0.536D+00
 Gap=     0.126 Goal=   None    Shift=    0.000
 RMSDP=1.12D-04 MaxDP=4.36D-03 DE=-8.86D-03 OVMax= 9.61D-03

 Cycle   7  Pass 1  IDiag  1:
 RMSU=  5.92D-05    CP:  9.69D-01  2.64D-01  7.85D-01  7.24D-01  6.33D-01
                    CP:  5.93D-01
 E= -1339.41408309369     Delta-E=       -0.000618682214 Rises=F Damp=F
 DIIS: error= 5.33D-04 at cycle   7 NSaved=   7.
 NSaved= 7 IEnMin= 7 EnMin= -1339.41408309369     IErMin= 7 ErrMin= 5.33D-04
 ErrMax= 5.33D-04  0.00D+00 EMaxC= 1.00D-01 BMatC= 1.27D-04 BMatP= 7.13D-04
 IDIUse=3 WtCom= 9.95D-01 WtEn= 5.33D-03
 Coeff-Com:  0.299D-03-0.273D-02 0.120D-01 0.374D-01 0.108D+00 0.348D+00
 Coeff-Com:  0.497D+00
 Coeff-En:   0.000D+00 0.000D+00 0.000D+00 0.000D+00 0.000D+00 0.142D+00
 Coeff-En:   0.858D+00
 Coeff:      0.298D-03-0.272D-02 0.119D-01 0.372D-01 0.107D+00 0.347D+00
 Coeff:      0.499D+00
 Gap=     0.127 Goal=   None    Shift=    0.000
 RMSDP=3.43D-05 MaxDP=1.56D-03 DE=-6.19D-04 OVMax= 2.92D-03

 Cycle   8  Pass 1  IDiag  1:
 RMSU=  2.15D-05    CP:  9.69D-01  2.64D-01  7.86D-01  7.23D-01  6.19D-01
                    CP:  6.52D-01  6.24D-01
 E= -1339.41420051434     Delta-E=       -0.000117420652 Rises=F Damp=F
 DIIS: error= 1.18D-04 at cycle   8 NSaved=   8.
 NSaved= 8 IEnMin= 8 EnMin= -1339.41420051434     IErMin= 8 ErrMin= 1.18D-04
 ErrMax= 1.18D-04  0.00D+00 EMaxC= 1.00D-01 BMatC= 9.29D-06 BMatP= 1.27D-04
 IDIUse=3 WtCom= 9.99D-01 WtEn= 1.18D-03
 Coeff-Com:  0.490D-03-0.125D-02 0.335D-02 0.883D-02 0.344D-01 0.143D+00
 Coeff-Com:  0.281D+00 0.531D+00
 Coeff-En:   0.000D+00 0.000D+00 0.000D+00 0.000D+00 0.000D+00 0.000D+00
 Coeff-En:   0.000D+00 0.100D+01
 Coeff:      0.489D-03-0.125D-02 0.335D-02 0.881D-02 0.344D-01 0.143D+00
 Coeff:      0.280D+00 0.531D+00
 Gap=     0.127 Goal=   None    Shift=    0.000
 RMSDP=9.62D-06 MaxDP=5.36D-04 DE=-1.17D-04 OVMax= 6.48D-04

 Cycle   9  Pass 1  IDiag  1:
 RMSU=  7.26D-06    CP:  9.69D-01  2.64D-01  7.86D-01  7.23D-01  6.18D-01
                    CP:  6.56D-01  6.49D-01  7.28D-01
 E= -1339.41420833567     Delta-E=       -0.000007821331 Rises=F Damp=F
 DIIS: error= 5.96D-05 at cycle   9 NSaved=   9.
 NSaved= 9 IEnMin= 9 EnMin= -1339.41420833567     IErMin= 9 ErrMin= 5.96D-05
 ErrMax= 5.96D-05  0.00D+00 EMaxC= 1.00D-01 BMatC= 1.06D-06 BMatP= 9.29D-06
 IDIUse=1 WtCom= 1.00D+00 WtEn= 0.00D+00
 Coeff-Com:  0.348D-03-0.379D-03 0.558D-03-0.299D-03 0.423D-02 0.303D-01
 Coeff-Com:  0.882D-01 0.289D+00 0.588D+00
 Coeff:      0.348D-03-0.379D-03 0.558D-03-0.299D-03 0.423D-02 0.303D-01
 Coeff:      0.882D-01 0.289D+00 0.588D+00
 Gap=     0.127 Goal=   None    Shift=    0.000
 RMSDP=3.57D-06 MaxDP=1.54D-04 DE=-7.82D-06 OVMax= 3.13D-04

 Cycle  10  Pass 1  IDiag  1:
 RMSU=  2.70D-06    CP:  9.69D-01  2.64D-01  7.86D-01  7.22D-01  6.18D-01
                    CP:  6.57D-01  6.54D-01  7.66D-01  7.60D-01
 E= -1339.41420932858     Delta-E=       -0.000000992914 Rises=F Damp=F
 DIIS: error= 2.14D-05 at cycle  10 NSaved=  10.
 NSaved=10 IEnMin=10 EnMin= -1339.41420932858     IErMin=10 ErrMin= 2.14D-05
 ErrMax= 2.14D-05  0.00D+00 EMaxC= 1.00D-01 BMatC= 1.28D-07 BMatP= 1.06D-06
 IDIUse=1 WtCom= 1.00D+00 WtEn= 0.00D+00
 Coeff-Com:  0.130D-03-0.110D-03 0.503D-04-0.998D-03-0.127D-02 0.377D-03
 Coeff-Com:  0.172D-01 0.904D-01 0.319D+00 0.575D+00
 Coeff:      0.130D-03-0.110D-03 0.503D-04-0.998D-03-0.127D-02 0.377D-03
 Coeff:      0.172D-01 0.904D-01 0.319D+00 0.575D+00
 Gap=     0.127 Goal=   None    Shift=    0.000
 RMSDP=1.31D-06 MaxDP=7.49D-05 DE=-9.93D-07 OVMax= 1.07D-04

 Cycle  11  Pass 1  IDiag  1:
 RMSU=  7.98D-07    CP:  9.69D-01  2.64D-01  7.86D-01  7.22D-01  6.18D-01
                    CP:  6.57D-01  6.56D-01  7.82D-01  8.07D-01  6.77D-01
 E= -1339.41420945280     Delta-E=       -0.000000124213 Rises=F Damp=F
 DIIS: error= 4.35D-06 at cycle  11 NSaved=  11.
 NSaved=11 IEnMin=11 EnMin= -1339.41420945280     IErMin=11 ErrMin= 4.35D-06
 ErrMax= 4.35D-06  0.00D+00 EMaxC= 1.00D-01 BMatC= 1.16D-08 BMatP= 1.28D-07
 IDIUse=1 WtCom= 1.00D+00 WtEn= 0.00D+00
 Coeff-Com:  0.258D-04-0.111D-04 0.122D-04-0.408D-03-0.992D-03-0.296D-02
 Coeff-Com:  0.900D-04 0.145D-01 0.994D-01 0.301D+00 0.589D+00
 Coeff:      0.258D-04-0.111D-04 0.122D-04-0.408D-03-0.992D-03-0.296D-02
 Coeff:      0.900D-04 0.145D-01 0.994D-01 0.301D+00 0.589D+00
 Gap=     0.127 Goal=   None    Shift=    0.000
 RMSDP=3.57D-07 MaxDP=1.75D-05 DE=-1.24D-07 OVMax= 2.55D-05

 Cycle  12  Pass 1  IDiag  1:
 RMSU=  2.04D-07    CP:  9.69D-01  2.64D-01  7.86D-01  7.22D-01  6.18D-01
                    CP:  6.57D-01  6.58D-01  7.81D-01  8.13D-01  7.23D-01
                    CP:  7.23D-01
 E= -1339.41420946452     Delta-E=       -0.000000011723 Rises=F Damp=F
 DIIS: error= 9.14D-07 at cycle  12 NSaved=  12.
 NSaved=12 IEnMin=12 EnMin= -1339.41420946452     IErMin=12 ErrMin= 9.14D-07
 ErrMax= 9.14D-07  0.00D+00 EMaxC= 1.00D-01 BMatC= 4.56D-10 BMatP= 1.16D-08
 IDIUse=1 WtCom= 1.00D+00 WtEn= 0.00D+00
 Coeff-Com:  0.212D-05 0.112D-05 0.165D-04-0.873D-04-0.313D-03-0.127D-02
 Coeff-Com: -0.772D-03 0.126D-02 0.248D-01 0.104D+00 0.258D+00 0.615D+00
 Coeff:      0.212D-05 0.112D-05 0.165D-04-0.873D-04-0.313D-03-0.127D-02
 Coeff:     -0.772D-03 0.126D-02 0.248D-01 0.104D+00 0.258D+00 0.615D+00
 Gap=     0.127 Goal=   None    Shift=    0.000
 RMSDP=9.55D-08 MaxDP=4.92D-06 DE=-1.17D-08 OVMax= 9.53D-06

 Cycle  13  Pass 1  IDiag  1:
 RMSU=  7.02D-08    CP:  9.69D-01  2.64D-01  7.86D-01  7.22D-01  6.18D-01
                    CP:  6.57D-01  6.57D-01  7.80D-01  8.14D-01  7.29D-01
                    CP:  7.23D-01  7.57D-01
 E= -1339.41420946492     Delta-E=       -0.000000000398 Rises=F Damp=F
 DIIS: error= 4.21D-07 at cycle  13 NSaved=  13.
 NSaved=13 IEnMin=13 EnMin= -1339.41420946492     IErMin=13 ErrMin= 4.21D-07
 ErrMax= 4.21D-07  0.00D+00 EMaxC= 1.00D-01 BMatC= 6.22D-11 BMatP= 4.56D-10
 IDIUse=1 WtCom= 1.00D+00 WtEn= 0.00D+00
 Coeff-Com: -0.122D-06 0.438D-06 0.252D-05-0.188D-04-0.891D-04-0.427D-03
 Coeff-Com: -0.366D-03-0.516D-03 0.358D-02 0.262D-01 0.758D-01 0.302D+00
 Coeff-Com:  0.593D+00
 Coeff:     -0.122D-06 0.438D-06 0.252D-05-0.188D-04-0.891D-04-0.427D-03
 Coeff:     -0.366D-03-0.516D-03 0.358D-02 0.262D-01 0.758D-01 0.302D+00
 Coeff:      0.593D+00
 Gap=     0.127 Goal=   None    Shift=    0.000
 RMSDP=3.07D-08 MaxDP=2.06D-06 DE=-3.98D-10 OVMax= 2.01D-06

 Cycle  14  Pass 1  IDiag  1:
 RMSU=  2.14D-08    CP:  9.69D-01  2.64D-01  7.86D-01  7.22D-01  6.18D-01
                    CP:  6.57D-01  6.57D-01  7.81D-01  8.15D-01  7.31D-01
                    CP:  7.28D-01  7.81D-01  8.08D-01
 E= -1339.41420946498     Delta-E=       -0.000000000061 Rises=F Damp=F
 DIIS: error= 1.85D-07 at cycle  14 NSaved=  14.
 NSaved=14 IEnMin=14 EnMin= -1339.41420946498     IErMin=14 ErrMin= 1.85D-07
 ErrMax= 1.85D-07  0.00D+00 EMaxC= 1.00D-01 BMatC= 1.29D-11 BMatP= 6.22D-11
 IDIUse=1 WtCom= 1.00D+00 WtEn= 0.00D+00
 Coeff-Com: -0.318D-06 0.409D-06-0.407D-06-0.137D-05-0.203D-04-0.130D-03
 Coeff-Com: -0.137D-03-0.451D-03-0.741D-03 0.433D-02 0.157D-01 0.113D+00
 Coeff-Com:  0.370D+00 0.499D+00
 Coeff:     -0.318D-06 0.409D-06-0.407D-06-0.137D-05-0.203D-04-0.130D-03
 Coeff:     -0.137D-03-0.451D-03-0.741D-03 0.433D-02 0.157D-01 0.113D+00
 Coeff:      0.370D+00 0.499D+00
 Gap=     0.127 Goal=   None    Shift=    0.000
 RMSDP=1.01D-08 MaxDP=4.76D-07 DE=-6.14D-11 OVMax= 8.00D-07

 Cycle  15  Pass 1  IDiag  1:
 RMSU=  6.45D-09    CP:  9.69D-01  2.64D-01  7.86D-01  7.22D-01  6.18D-01
                    CP:  6.57D-01  6.57D-01  7.81D-01  8.15D-01  7.31D-01
                    CP:  7.31D-01  7.95D-01  8.19D-01  6.99D-01
 E= -1339.41420946499     Delta-E=       -0.000000000007 Rises=F Damp=F
 DIIS: error= 2.55D-08 at cycle  15 NSaved=  15.
 NSaved=15 IEnMin=15 EnMin= -1339.41420946499     IErMin=15 ErrMin= 2.55D-08
 ErrMax= 2.55D-08  0.00D+00 EMaxC= 1.00D-01 BMatC= 3.27D-13 BMatP= 1.29D-11
 IDIUse=1 WtCom= 1.00D+00 WtEn= 0.00D+00
 Coeff-Com: -0.160D-06 0.592D-07-0.545D-06 0.199D-05 0.156D-05-0.751D-05
 Coeff-Com: -0.145D-04-0.147D-03-0.811D-03-0.105D-02-0.223D-02 0.144D-01
 Coeff-Com:  0.892D-01 0.177D+00 0.723D+00
 Coeff:     -0.160D-06 0.592D-07-0.545D-06 0.199D-05 0.156D-05-0.751D-05
 Coeff:     -0.145D-04-0.147D-03-0.811D-03-0.105D-02-0.223D-02 0.144D-01
 Coeff:      0.892D-01 0.177D+00 0.723D+00
 Gap=     0.127 Goal=   None    Shift=    0.000
 RMSDP=3.05D-09 MaxDP=9.54D-08 DE=-7.28D-12 OVMax= 2.23D-07

 Error on total polarization charges =  0.01662
 SCF Done:  E(RTPSSh) =  -1339.41420946     A.U. after   15 cycles
            NFock= 15  Conv=0.30D-08     -V/T= 2.0707
 KE= 1.250963814660D+03 PE=-6.807456637226D+03 EE= 2.365689728852D+03
 Leave Link  502 at Sun Feb  8 22:34:50 2026, MaxMem= 16106127360 cpu:            2072.3 elap:              38.3
 (Enter /home/software/g16-shuai/g16/l801.exe)
 DoSCS=F DFT=T ScalE2(SS,OS)=  1.000000  1.000000
 ExpMin= 4.90D-02 ExpMax= 1.04D+04 ExpMxC= 1.57D+03 IAcc=3 IRadAn=         5 AccDes= 0.00D+00
 HarFok:  IExCor=  205 AccDes= 0.00D+00 IRadAn=         5 IDoV=-2 UseB2=F ITyADJ=14
 ICtDFT= 12500011 ScaDFX=  1.000000  1.000000  1.000000  1.000000
 Defaulting to unpruned grid for atomic number  78.
 GSVD:  LWork=        -713 too small for GESVD, short by        2990 words or        2990 for optimal perf.
 Largest valence mixing into a core orbital is  9.57D-05
 Largest core mixing into a valence orbital is  6.47D-05
 Range of M.O.s used for correlation:    24   367
 NBasis=   367 NAE=    80 NBE=    80 NFC=    23 NFV=     0
 NROrb=    344 NOA=    57 NOB=    57 NVA=   287 NVB=   287

 **** Warning!!: The largest alpha MO coefficient is  0.12574182D+02

 Leave Link  801 at Sun Feb  8 22:34:51 2026, MaxMem= 16106127360 cpu:               4.1 elap:               0.1
 (Enter /home/software/g16-shuai/g16/l914.exe)
 RHF ground state
 Two-electron integral symmetry not used.
 MDV= 16106127360 DFT=T DoStab=F Mixed=T DoRPA=T DoScal=F NonHer=T
 NEqPCM:  Using equilibrium solvation (IEInf=0, Eps=   8.9300, EpsInf=   2.0283)
 Making orbital integer symmetry assigments:
    40 initial guesses have been made.
 Convergence on wavefunction:    0.000001000000000
 Davidson Disk Diagonalization:  ConvIn= 1.00D-06 SkipCon=T Conv= 1.00D-06.
 Max sub-space:  2000 roots to seek:    40 dimension of matrix:        32718
 Iteration     1 Dimension    40 NMult     0 NNew     40
 CISAX will form    40 AO SS matrices at one time.
 NMat=    40 NSing=    40 JSym2X= 0.
 FoFJK:  IHMeth= 1 ICntrl=       0 DoSepK=F KAlg= 0 I1Cent=           0 FoldK=F
 IRaf= 850000000 NMat=      80 IRICut=     100 DoRegI=T DoRafI=T ISym2E= 0 IDoP0=3 IntGTp=3.
 FoFCou: FMM=F IPFlag=           0 FMFlag=      100000 FMFlg1=           0
         NFxFlg=           0 DoJE=F BraDBF=F KetDBF=F FulRan=T
         wScrn=  0.000000 ICntrl=         0 IOpCl=  0 I1Cent=           0 NGrid=           0
         NMat0=   80 NMatS0=     40 NMatT0=    0 NMatD0=   80 NMtDS0=    0 NMtDT0=    0
 Symmetry not used in FoFCou.
 Raff kept on since  82.83% of shell-pairs survive, threshold=   0.20 IRatSp=83.
 Defaulting to unpruned grid for atomic number  78.
 Defaulting to unpruned grid for atomic number  78.
 Defaulting to unpruned grid for atomic number  78.
 Defaulting to unpruned grid for atomic number  78.
 Defaulting to unpruned grid for atomic number  78.
 Defaulting to unpruned grid for atomic number  78.
 Defaulting to unpruned grid for atomic number  78.
 Defaulting to unpruned grid for atomic number  78.
 Defaulting to unpruned grid for atomic number  78.
 Defaulting to unpruned grid for atomic number  78.
 Defaulting to unpruned grid for atomic number  78.
 Defaulting to unpruned grid for atomic number  78.
 Defaulting to unpruned grid for atomic number  78.
 Defaulting to unpruned grid for atomic number  78.
 Defaulting to unpruned grid for atomic number  78.
 Defaulting to unpruned grid for atomic number  78.
 Defaulting to unpruned grid for atomic number  78.
 Defaulting to unpruned grid for atomic number  78.
 Defaulting to unpruned grid for atomic number  78.
 Defaulting to unpruned grid for atomic number  78.
 Defaulting to unpruned grid for atomic number  78.
 Defaulting to unpruned grid for atomic number  78.
 Defaulting to unpruned grid for atomic number  78.
 Defaulting to unpruned grid for atomic number  78.
 Defaulting to unpruned grid for atomic number  78.
 Defaulting to unpruned grid for atomic number  78.
 Defaulting to unpruned grid for atomic number  78.
 Defaulting to unpruned grid for atomic number  78.
 Defaulting to unpruned grid for atomic number  78.
 Defaulting to unpruned grid for atomic number  78.
 Defaulting to unpruned grid for atomic number  78.
 Defaulting to unpruned grid for atomic number  78.
 Defaulting to unpruned grid for atomic number  78.
 Defaulting to unpruned grid for atomic number  78.
 Defaulting to unpruned grid for atomic number  78.
 Defaulting to unpruned grid for atomic number  78.
 Defaulting to unpruned grid for atomic number  78.
 Defaulting to unpruned grid for atomic number  78.
 Defaulting to unpruned grid for atomic number  78.
 Defaulting to unpruned grid for atomic number  78.
 Defaulting to unpruned grid for atomic number  78.
 Defaulting to unpruned grid for atomic number  78.
 Defaulting to unpruned grid for atomic number  78.
 Defaulting to unpruned grid for atomic number  78.
 Defaulting to unpruned grid for atomic number  78.
 Defaulting to unpruned grid for atomic number  78.
 Defaulting to unpruned grid for atomic number  78.
 Defaulting to unpruned grid for atomic number  78.
 Defaulting to unpruned grid for atomic number  78.
 Defaulting to unpruned grid for atomic number  78.
 Defaulting to unpruned grid for atomic number  78.
 Defaulting to unpruned grid for atomic number  78.
 Defaulting to unpruned grid for atomic number  78.
 Defaulting to unpruned grid for atomic number  78.
 Defaulting to unpruned grid for atomic number  78.
 Defaulting to unpruned grid for atomic number  78.
 New state      3 was old state      4
 New state      4 was old state      5
 New state      5 was old state      3
 New state      6 was old state      9
 New state      7 was old state     10
 New state      8 was old state      6
 New state      9 was old state      8
 New state     10 was old state      7
 Excitation Energies [eV] at current iteration:
 Root      1 :     3.438807028515569
 Root      2 :     3.604335074446974
 Root      3 :     3.692285789147995
 Root      4 :     3.694067832558015
 Root      5 :     3.911779186039972
 Root      6 :     4.380746100406635
 Root      7 :     4.387261524752767
 Root      8 :     4.396822281084813
 Root      9 :     4.674273167882723
 Root     10 :     4.699048985156942
 Root     11 :     4.958041573900848
 Root     12 :     4.987371045643424
 Root     13 :     5.016769623933011
 Root     14 :     5.129012763983117
 Root     15 :     5.169426124899907
 Root     16 :     5.174741747443977
 Root     17 :     5.393110049371719
 Root     18 :     5.439288228485572
 Root     19 :     5.528020330351793
 Root     20 :     5.541469358866002
 Root     21 :     5.545586647296010
 Root     22 :     5.617661510654068
 Root     23 :     5.631898520979874
 Root     24 :     5.669627797580109
 Root     25 :     5.683708904498496
 Root     26 :     5.696457610455981
 Root     27 :     5.720693532325110
 Root     28 :     5.768015551065480
 Root     29 :     5.770948869395510
 Root     30 :     5.835145933225204
 Root     31 :     5.882323890398105
 Root     32 :     5.928351985023424
 Root     33 :     5.983438426639172
 Root     34 :     6.110597441140306
 Root     35 :     6.270082237934912
 Root     36 :     6.430653000322951
 Root     37 :     6.487044516375137
 Root     38 :     6.779582400991311
 Root     39 :     6.982973634673840
 Root     40 :     7.062663518974118
 Iteration     2 Dimension    60 NMult    40 NNew     20
 CISAX will form    20 AO SS matrices at one time.
 NMat=    20 NSing=    20 JSym2X= 0.
 Root      1 not converged, maximum delta is    0.042559868730280
 Root      2 not converged, maximum delta is    0.064582283174554
 New state      3 was old state      4
 Root      3 not converged, maximum delta is    0.015187062050818
 New state      4 was old state      3
 Root      4 not converged, maximum delta is    0.021232860264137
 Root      5 not converged, maximum delta is    0.067803455446399
 New state      6 was old state      8
 Root      6 not converged, maximum delta is    0.110293271523979
 New state      7 was old state      6
 Root      7 not converged, maximum delta is    0.253376804610314
 New state      8 was old state     10
 Root      8 not converged, maximum delta is    0.234483388160918
 New state      9 was old state      7
 Root      9 not converged, maximum delta is    0.051423418355394
 New state     10 was old state      9
 Root     10 not converged, maximum delta is    0.103240322247945
 Excitation Energies [eV] at current iteration:
 Root      1 :     3.203340628785199   Change is   -0.235466399730370
 Root      2 :     3.482045045558715   Change is   -0.122290028888259
 Root      3 :     3.652784278214537   Change is   -0.041283554343478
 Root      4 :     3.675130153762399   Change is   -0.017155635385597
 Root      5 :     3.782757212073583   Change is   -0.129021973966389
 Root      6 :     4.273971701315918   Change is   -0.122850579768896
 Root      7 :     4.373265904011276   Change is   -0.007480196395359
 Root      8 :     4.378747093722971   Change is   -0.320301891433970
 Root      9 :     4.382668458057799   Change is   -0.004593066694968
 Root     10 :     4.497034365427401   Change is   -0.177238802455323
 Iteration     3 Dimension    80 NMult    60 NNew     20
 CISAX will form    20 AO SS matrices at one time.
 NMat=    20 NSing=    20 JSym2X= 0.
 Root      1 not converged, maximum delta is    0.017381194564278
 Root      2 not converged, maximum delta is    0.007934880204194
 Root      3 not converged, maximum delta is    0.008750062175240
 Root      4 not converged, maximum delta is    0.001610056674325
 Root      5 not converged, maximum delta is    0.010211223333594
 Root      6 not converged, maximum delta is    0.022537016180675
 New state      7 was old state      8
 Root      7 not converged, maximum delta is    0.336566958693925
 New state      8 was old state      7
 Root      8 not converged, maximum delta is    0.276255144885753
 Root      9 not converged, maximum delta is    0.029730655858029
 Root     10 not converged, maximum delta is    0.025767531335375
 Excitation Energies [eV] at current iteration:
 Root      1 :     3.186388311111693   Change is   -0.016952317673506
 Root      2 :     3.475046716120676   Change is   -0.006998329438039
 Root      3 :     3.650179920774788   Change is   -0.002604357439749
 Root      4 :     3.674266183203025   Change is   -0.000863970559373
 Root      5 :     3.772754217230054   Change is   -0.010002994843529
 Root      6 :     4.263279948276417   Change is   -0.010691753039500
 Root      7 :     4.361797369254608   Change is   -0.016949724468363
 Root      8 :     4.373774159161709   Change is    0.000508255150432
 Root      9 :     4.382376337994492   Change is   -0.000292120063307
 Root     10 :     4.484931215718366   Change is   -0.012103149709035
 Iteration     4 Dimension   100 NMult    80 NNew     20
 CISAX will form    20 AO SS matrices at one time.
 NMat=    20 NSing=    20 JSym2X= 0.
 Root      1 not converged, maximum delta is    0.003297177045107
 Root      2 not converged, maximum delta is    0.001906423458507
 Root      3 not converged, maximum delta is    0.001073064187352
 Root      4 not converged, maximum delta is    0.000606096654009
 Root      5 not converged, maximum delta is    0.002688358550927
 Root      6 not converged, maximum delta is    0.004132676860070
 Root      7 not converged, maximum delta is    0.012274780679326
 Root      8 not converged, maximum delta is    0.009885549649817
 Root      9 not converged, maximum delta is    0.000614387071363
 Root     10 not converged, maximum delta is    0.002209159935982
 Excitation Energies [eV] at current iteration:
 Root      1 :     3.185226569372298   Change is   -0.001161741739395
 Root      2 :     3.474341450531041   Change is   -0.000705265589636
 Root      3 :     3.650021317999277   Change is   -0.000158602775511
 Root      4 :     3.674208297096595   Change is   -0.000057886106430
 Root      5 :     3.771946000914073   Change is   -0.000808216315981
 Root      6 :     4.262194604363701   Change is   -0.001085343912716
 Root      7 :     4.360095661646160   Change is   -0.001701707608448
 Root      8 :     4.373713665452190   Change is   -0.000060493709519
 Root      9 :     4.382343948238062   Change is   -0.000032389756430
 Root     10 :     4.483887492385093   Change is   -0.001043723333274
 Iteration     5 Dimension   120 NMult   100 NNew     20
 CISAX will form    20 AO SS matrices at one time.
 NMat=    20 NSing=    20 JSym2X= 0.
 Root      1 not converged, maximum delta is    0.000680149151216
 Root      2 not converged, maximum delta is    0.000347272355061
 Root      3 not converged, maximum delta is    0.000144309935271
 Root      4 not converged, maximum delta is    0.000095895502786
 Root      5 not converged, maximum delta is    0.000592082555087
 Root      6 not converged, maximum delta is    0.000679199826562
 Root      7 not converged, maximum delta is    0.001088210448851
 Root      8 not converged, maximum delta is    0.000875367679023
 Root      9 not converged, maximum delta is    0.000134064276551
 Root     10 not converged, maximum delta is    0.000611962293302
 Excitation Energies [eV] at current iteration:
 Root      1 :     3.185092069994128   Change is   -0.000134499378170
 Root      2 :     3.474292153891257   Change is   -0.000049296639784
 Root      3 :     3.650012481997895   Change is   -0.000008836001383
 Root      4 :     3.674205092942788   Change is   -0.000003204153807
 Root      5 :     3.771876212194901   Change is   -0.000069788719172
 Root      6 :     4.262063882854195   Change is   -0.000130721509507
 Root      7 :     4.359917362906189   Change is   -0.000178298739971
 Root      8 :     4.373707961806180   Change is   -0.000005703646010
 Root      9 :     4.382340436640431   Change is   -0.000003511597630
 Root     10 :     4.483804303413526   Change is   -0.000083188971566
 Iteration     6 Dimension   140 NMult   120 NNew     20
 CISAX will form    20 AO SS matrices at one time.
 NMat=    20 NSing=    20 JSym2X= 0.
 Root      1 not converged, maximum delta is    0.000128487360714
 Root      2 not converged, maximum delta is    0.000082405729322
 Root      3 not converged, maximum delta is    0.000029856224560
 Root      4 not converged, maximum delta is    0.000020510385560
 Root      5 not converged, maximum delta is    0.000077922529398
 Root      6 not converged, maximum delta is    0.000172802458314
 Root      7 not converged, maximum delta is    0.000183823083860
 Root      8 not converged, maximum delta is    0.000064093320141
 Root      9 not converged, maximum delta is    0.000027948704419
 Root     10 not converged, maximum delta is    0.000159593062117
 Excitation Energies [eV] at current iteration:
 Root      1 :     3.185085194613702   Change is   -0.000006875380426
 Root      2 :     3.474289978039266   Change is   -0.000002175851991
 Root      3 :     3.650012060499846   Change is   -0.000000421498049
 Root      4 :     3.674204916029175   Change is   -0.000000176913613
 Root      5 :     3.771873099277828   Change is   -0.000003112917074
 Root      6 :     4.262054242219708   Change is   -0.000009640634486
 Root      7 :     4.359903570685492   Change is   -0.000013792220697
 Root      8 :     4.373707454714269   Change is   -0.000000507091911
 Root      9 :     4.382340169772467   Change is   -0.000000266867964
 Root     10 :     4.483795749172935   Change is   -0.000008554240591
 Iteration     7 Dimension   160 NMult   140 NNew     20
 CISAX will form    20 AO SS matrices at one time.
 NMat=    20 NSing=    20 JSym2X= 0.
 Root      1 not converged, maximum delta is    0.000030252958981
 Root      2 not converged, maximum delta is    0.000023378757743
 Root      3 not converged, maximum delta is    0.000010559268464
 Root      4 not converged, maximum delta is    0.000008269667401
 Root      5 not converged, maximum delta is    0.000024584239389
 Root      6 not converged, maximum delta is    0.000035528799835
 Root      7 not converged, maximum delta is    0.000060999345899
 Root      8 not converged, maximum delta is    0.000016050878619
 Root      9 not converged, maximum delta is    0.000012421344405
 Root     10 not converged, maximum delta is    0.000049914750278
 Excitation Energies [eV] at current iteration:
 Root      1 :     3.185084885575097   Change is   -0.000000309038605
 Root      2 :     3.474289852631920   Change is   -0.000000125407346
 Root      3 :     3.650012033577987   Change is   -0.000000026921859
 Root      4 :     3.674204905516843   Change is   -0.000000010512332
 Root      5 :     3.771872933232866   Change is   -0.000000166044961
 Root      6 :     4.262053328590139   Change is   -0.000000913629569
 Root      7 :     4.359902109096376   Change is   -0.000001461589115
 Root      8 :     4.373707396499898   Change is   -0.000000058214371
 Root      9 :     4.382340142472406   Change is   -0.000000027300062
 Root     10 :     4.483794846342843   Change is   -0.000000902830093
 Iteration     8 Dimension   180 NMult   160 NNew     20
 CISAX will form    20 AO SS matrices at one time.
 NMat=    20 NSing=    20 JSym2X= 0.
 Root      1 not converged, maximum delta is    0.000003846131853
 Root      2 not converged, maximum delta is    0.000004928511221
 Root      3 not converged, maximum delta is    0.000002533523161
 Root      4 not converged, maximum delta is    0.000001980004529
 Root      5 not converged, maximum delta is    0.000006366227435
 Root      6 not converged, maximum delta is    0.000013192220714
 Root      7 not converged, maximum delta is    0.000021884534516
 Root      8 not converged, maximum delta is    0.000003901309933
 Root      9 not converged, maximum delta is    0.000002992458207
 Root     10 not converged, maximum delta is    0.000022622244419
 Excitation Energies [eV] at current iteration:
 Root      1 :     3.185084876173440   Change is   -0.000000009401657
 Root      2 :     3.474289845099273   Change is   -0.000000007532647
 Root      3 :     3.650012032003032   Change is   -0.000000001574955
 Root      4 :     3.674204904661566   Change is   -0.000000000855277
 Root      5 :     3.771872923814427   Change is   -0.000000009418439
 Root      6 :     4.262053269516599   Change is   -0.000000059073540
 Root      7 :     4.359901994140762   Change is   -0.000000114955615
 Root      8 :     4.373707391084666   Change is   -0.000000005415233
 Root      9 :     4.382340139679481   Change is   -0.000000002792925
 Root     10 :     4.483794775815301   Change is   -0.000000070527541
 Iteration     9 Dimension   200 NMult   180 NNew     20
 CISAX will form    20 AO SS matrices at one time.
 NMat=    20 NSing=    20 JSym2X= 0.
 Root      1 has converged.
 Root      2 not converged, maximum delta is    0.000001172721236
 Root      3 has converged.
 Root      4 has converged.
 Root      5 not converged, maximum delta is    0.000001194029821
 Root      6 not converged, maximum delta is    0.000002468202427
 Root      7 not converged, maximum delta is    0.000004617652443
 Root      8 not converged, maximum delta is    0.000001017544178
 Root      9 has converged.
 Root     10 not converged, maximum delta is    0.000008917181155
 Excitation Energies [eV] at current iteration:
 Root      1 :     3.185084875880082   Change is   -0.000000000293358
 Root      2 :     3.474289844717799   Change is   -0.000000000381474
 Root      3 :     3.650012031909338   Change is   -0.000000000093694
 Root      4 :     3.674204904614177   Change is   -0.000000000047389
 Root      5 :     3.771872923245341   Change is   -0.000000000569087
 Root      6 :     4.262053264166003   Change is   -0.000000005350597
 Root      7 :     4.359901983730925   Change is   -0.000000010409837
 Root      8 :     4.373707390561728   Change is   -0.000000000522938
 Root      9 :     4.382340139454431   Change is   -0.000000000225049
 Root     10 :     4.483794767856961   Change is   -0.000000007958341
 Iteration    10 Dimension   212 NMult   200 NNew     12
 CISAX will form    12 AO SS matrices at one time.
 NMat=    12 NSing=    12 JSym2X= 0.
 Root      1 has converged.
 Root      2 has converged.
 Root      3 has converged.
 Root      4 has converged.
 Root      5 has converged.
 Root      6 has converged.
 Root      7 not converged, maximum delta is    0.000001242620862
 Root      8 has converged.
 Root      9 has converged.
 Root     10 not converged, maximum delta is    0.000001536689570
 Excitation Energies [eV] at current iteration:
 Root      1 :     3.185084875879592   Change is   -0.000000000000491
 Root      2 :     3.474289844701212   Change is   -0.000000000016587
 Root      3 :     3.650012031907536   Change is   -0.000000000001802
 Root      4 :     3.674204904613909   Change is   -0.000000000000268
 Root      5 :     3.771872923214131   Change is   -0.000000000031210
 Root      6 :     4.262053263784964   Change is   -0.000000000381039
 Root      7 :     4.359901983027262   Change is   -0.000000000703662
 Root      8 :     4.373707390519569   Change is   -0.000000000042159
 Root      9 :     4.382340139451954   Change is   -0.000000000002477
 Root     10 :     4.483794767156863   Change is   -0.000000000700098
 Iteration    11 Dimension   216 NMult   212 NNew      4
 CISAX will form     4 AO SS matrices at one time.
 NMat=     4 NSing=     4 JSym2X= 0.
 Root      1 has converged.
 Root      2 has converged.
 Root      3 has converged.
 Root      4 has converged.
 Root      5 has converged.
 Root      6 has converged.
 Root      7 has converged.
 Root      8 has converged.
 Root      9 has converged.
 Root     10 has converged.
 Excitation Energies [eV] at current iteration:
 Root      1 :     3.185084875879463   Change is   -0.000000000000129
 Root      2 :     3.474289844700669   Change is   -0.000000000000544
 Root      3 :     3.650012031907356   Change is   -0.000000000000180
 Root      4 :     3.674204904613931   Change is    0.000000000000022
 Root      5 :     3.771872923214044   Change is   -0.000000000000087
 Root      6 :     4.262053263777267   Change is   -0.000000000007696
 Root      7 :     4.359901982962079   Change is   -0.000000000065183
 Root      8 :     4.373707390518027   Change is   -0.000000000001542
 Root      9 :     4.382340139451110   Change is   -0.000000000000844
 Root     10 :     4.483794767096506   Change is   -0.000000000060357
 Convergence achieved on expansion vectors.
 ***********************************************************************
 Excited states from <AA,BB:AA,BB> singles matrix:
 ***********************************************************************
 
 1PDM for each excited state written to RWF  633
 Ground to excited state transition densities written to RWF  633
 Ground to excited state transition electric dipole moments (Au):
       state          X           Y           Z        Dip. S.      Osc.
         1        -0.0065     -0.6820      0.0001      0.4652      0.0363
         2        -0.9061      0.0144     -0.0115      0.8213      0.0699
         3         0.0102      0.0083     -0.7873      0.6200      0.0554
         4        -0.0072      0.0000     -0.0009      0.0001      0.0000
         5         1.1652     -0.0055      0.0178      1.3581      0.1255
         6         0.0021      0.6140     -0.0000      0.3769      0.0394
         7        -0.0148     -1.2782     -0.0315      1.6349      0.1746
         8         0.0030      0.1705     -0.0380      0.0305      0.0033
         9        -0.0338      0.0169      0.0006      0.0014      0.0002
        10        -2.0288      0.0131     -0.0312      4.1171      0.4523
 Ground to excited state transition velocity dipole moments (Au):
       state          X           Y           Z        Dip. S.      Osc.
         1         0.0005      0.0585     -0.0000      0.0034      0.0195
         2         0.0900     -0.0015      0.0011      0.0081      0.0423
         3        -0.0011     -0.0005      0.0825      0.0068      0.0338
         4         0.0008      0.0000      0.0001      0.0000      0.0000
         5        -0.1591      0.0008     -0.0024      0.0253      0.1217
         6        -0.0004     -0.1040     -0.0002      0.0108      0.0460
         7         0.0021      0.1823      0.0044      0.0332      0.1383
         8        -0.0004     -0.0246      0.0048      0.0006      0.0026
         9         0.0048     -0.0025     -0.0001      0.0000      0.0001
        10         0.3115     -0.0020      0.0048      0.0970      0.3926
 Ground to excited state transition magnetic dipole moments (Au):
       state          X           Y           Z
         1        -0.0041      0.0004      0.0657
         2        -0.0258     -0.0215      1.5671
         3         0.2096     -0.0776      0.0068
         4         0.0025      0.3673      0.0275
         5        -0.0178     -0.0045      1.1109
         6        -0.0010      0.0004     -0.0999
         7         0.0182     -0.0027      0.1664
         8         0.1098     -0.0087     -0.0207
         9         0.0030      0.1493     -0.0005
        10         0.0223      0.0016     -1.3857
 Ground to excited state transition velocity quadrupole moments (Au):
       state          XX          YY          ZZ          XY          XZ          YZ
         1         0.3557      0.3176     -0.0217      0.0533      0.0057      0.0010
         2         0.1646     -0.0038      0.0002      0.0201      0.0004      0.0006
         3         0.0014      0.0144     -0.0083      0.0008      0.0759     -0.0604
         4         0.0032      0.0002     -0.0026     -0.0006     -0.0820      0.0004
         5        -0.2982      0.0014      0.0001     -0.3227     -0.0026     -0.0053
         6         0.6820     -1.0251      0.0231     -0.1093      0.0099     -0.0082
         7         0.3775      0.4190      0.0047      0.1693      0.0093     -0.0016
         8        -0.0284     -0.0749     -0.0007     -0.0223      0.0047     -0.0095
         9         0.0091     -0.0097     -0.0008     -0.0011     -0.0277      0.0002
        10         0.5763      0.0009     -0.0001      0.2245     -0.0001      0.0045
 <0|del|b> * <b|rxdel|0> + <0|del|b> * <b|delr+rdel|0>
 Rotatory Strengths (R) in cgs (10**-40 erg-esu-cm/Gauss)
       state          XX          YY          ZZ    R(velocity)    E-M Angle
         1        -0.9445     -0.0051      1.0828      0.0444       90.00
         2         4.9934     -1.5004     -6.4907     -0.9992       90.22
         3         1.8557      0.8966     -0.7602      0.6640       88.83
         4         0.0652      0.0131      0.0411      0.0398       90.00
         5        -4.9133      0.4555      5.0467      0.1963       89.96
         6         2.3011      0.0047     -2.4229     -0.0390       90.00
         7        -1.5733      0.0504      2.7315      0.4028       89.49
         8         0.2723     -0.0774      0.1032      0.0994       90.00
         9        -0.9689      0.0338     -0.6363     -0.5238      116.42
        10       -11.9155      1.4322     11.8645      0.4604       89.96
 1/2[<0|r|b>*<b|rxdel|0> + (<0|rxdel|b>*<b|r|0>)*]
 Rotatory Strengths (R) in cgs (10**-40 erg-esu-cm/Gauss)
       state          XX          YY          ZZ     R(length)
         1        -0.0190      0.2094     -0.0056      0.0616
         2       -16.5261      0.2190     12.7209     -1.1954
         3        -1.5146      0.4531      3.7964      0.9116
         4         0.0128     -0.0071      0.0181      0.0079
         5        14.6685     -0.0174    -13.9447      0.2355
         6         0.0015     -0.1808     -0.0018     -0.0604
         7         0.1912     -2.4402      3.7063      0.4858
         8        -0.2299      1.0436     -0.5558      0.0860
         9         0.0724     -1.7842      0.0002     -0.5705
        10        32.0021     -0.0146    -30.5397      0.4826
  1/2[<0|del|b>*<b|r|0> + (<0|r|b>*<b|del|0>)*] (Au)
       state          X           Y           Z        Dip. S.   Osc.(frdel)
         1        -0.0000     -0.0399     -0.0000      0.0399      0.0266
         2        -0.0816     -0.0000     -0.0000      0.0816      0.0544
         3        -0.0000     -0.0000     -0.0650      0.0650      0.0433
         4        -0.0000      0.0000     -0.0000      0.0000      0.0000
         5        -0.1853     -0.0000     -0.0000      0.1854      0.1236
         6        -0.0000     -0.0638      0.0000      0.0638      0.0425
         7        -0.0000     -0.2330     -0.0001      0.2331      0.1554
         8        -0.0000     -0.0042     -0.0002      0.0044      0.0029
         9        -0.0002     -0.0000     -0.0000      0.0002      0.0001
        10        -0.6319     -0.0000     -0.0001      0.6321      0.4214

 Excitation energies and oscillator strengths:
 
 Excited state symmetry could not be determined.
 Excited State   1:      Singlet-?Sym    3.1851 eV  389.26 nm  f=0.0363  <S**2>=0.000
      80 -> 81         0.70002
 This state for optimization and/or second-order correction.
 Total Energy, E(TD-HF/TD-DFT) =  -1339.29715975    
 Copying the excited state density for this state as the 1-particle RhoCI density.
 
 Excited state symmetry could not be determined.
 Excited State   2:      Singlet-?Sym    3.4743 eV  356.86 nm  f=0.0699  <S**2>=0.000
      79 -> 81         0.70326
 
 Excited state symmetry could not be determined.
 Excited State   3:      Singlet-?Sym    3.6500 eV  339.68 nm  f=0.0554  <S**2>=0.000
      77 -> 81         0.70638
 
 Excited state symmetry could not be determined.
 Excited State   4:      Singlet-?Sym    3.6742 eV  337.44 nm  f=0.0000  <S**2>=0.000
      78 -> 81         0.70549
 
 Excited state symmetry could not be determined.
 Excited State   5:      Singlet-?Sym    3.7719 eV  328.71 nm  f=0.1255  <S**2>=0.000
      75 -> 81         0.15645
      80 -> 82         0.68101
 
 Excited state symmetry could not be determined.
 Excited State   6:      Singlet-?Sym    4.2621 eV  290.90 nm  f=0.0394  <S**2>=0.000
      75 -> 82         0.11346
      76 -> 81         0.34483
      79 -> 82         0.58957
      80 -> 83         0.11512
 
 Excited state symmetry could not be determined.
 Excited State   7:      Singlet-?Sym    4.3599 eV  284.37 nm  f=0.1746  <S**2>=0.000
      76 -> 81         0.60311
      79 -> 82        -0.32754
      80 -> 83        -0.10924
 
 Excited state symmetry could not be determined.
 Excited State   8:      Singlet-?Sym    4.3737 eV  283.48 nm  f=0.0033  <S**2>=0.000
      78 -> 82         0.69971
 
 Excited state symmetry could not be determined.
 Excited State   9:      Singlet-?Sym    4.3823 eV  282.92 nm  f=0.0002  <S**2>=0.000
      77 -> 82         0.70423
 
 Excited state symmetry could not be determined.
 Excited State  10:      Singlet-?Sym    4.4838 eV  276.52 nm  f=0.4523  <S**2>=0.000
      75 -> 81         0.67197
      76 -> 82        -0.12595
      80 -> 82        -0.13905
 SavETr:  write IOETrn=   770 NScale= 10 NData=  16 NLR=1 NState=   10 LETran=     190.
 The selected state is a singlet.
 CISGrd: IGrad=3 NXY=2 DFT=T
 CISAX will form     1 AO SS matrices at one time.
 NMat=     1 NSing=     1 JSym2X= 0.
 GePol: Maximum number of non-zero 1st derivatives   =     241
 GePol: Maximum number of non-zero 2nd derivatives   =     241
 Leave Link  914 at Sun Feb  8 22:38:40 2026, MaxMem= 16106127360 cpu:           12770.5 elap:             229.3
 (Enter /home/software/g16-shuai/g16/l1002.exe)
 Minotr:  Closed shell wavefunction.
          Computing CIS/TDA/TD derivatives.
          Using Z-Vector for PSCF gradient.
          Skipping F1 and S1 gradient terms here.
          IDoAtm=111111111111111111111111111111111
 NEqPCM:  Using equilibrium solvation (IEInf=0, Eps=   8.9300, EpsInf=   2.0283)
          Frozen-core window.
          Direct CPHF calculation.
          Differentiating once with respect to electric field.
                with respect to dipole field.
          Differentiating once with respect to nuclear coordinates.
          Requested convergence is 1.0D-10 RMS, and 1.0D-09 maximum.
          NewPWx=F KeepS1=T KeepF1=T KeepIn=T MapXYZ=F SortEE=F KeepMc=T.
 Two-electron integral symmetry not used.
          MDV=   16106127360 using IRadAn=       5.
          Solving linear equations separately, MaxMat=     336.
          There are     1 degrees of freedom in the 1st order CPHF.  IDoFFX=0 NUNeed=     1.
 FoFJK:  IHMeth= 1 ICntrl=       0 DoSepK=F KAlg= 0 I1Cent=           0 FoldK=F
 IRaf= 870000000 NMat=       1 IRICut=       1 DoRegI=T DoRafI=F ISym2E= 0 IDoP0=0 IntGTp=1.
 FoFCou: FMM=F IPFlag=           0 FMFlag=      100000 FMFlg1=           0
         NFxFlg=           0 DoJE=F BraDBF=F KetDBF=F FulRan=T
         wScrn=  0.000000 ICntrl=         0 IOpCl=  0 I1Cent=           0 NGrid=           0
         NMat0=    1 NMatS0=      1 NMatT0=    0 NMatD0=    1 NMtDS0=    0 NMtDT0=    0
 Symmetry not used in FoFCou.
 Defaulting to unpruned grid for atomic number  78.
 Defaulting to unpruned grid for atomic number  78.
 Defaulting to unpruned grid for atomic number  78.
 Defaulting to unpruned grid for atomic number  78.
 Defaulting to unpruned grid for atomic number  78.
 Defaulting to unpruned grid for atomic number  78.
 Defaulting to unpruned grid for atomic number  78.
 Defaulting to unpruned grid for atomic number  78.
 Defaulting to unpruned grid for atomic number  78.
 Defaulting to unpruned grid for atomic number  78.
 Defaulting to unpruned grid for atomic number  78.
 Defaulting to unpruned grid for atomic number  78.
 Defaulting to unpruned grid for atomic number  78.
 Defaulting to unpruned grid for atomic number  78.
 Defaulting to unpruned grid for atomic number  78.
 Defaulting to unpruned grid for atomic number  78.
 Defaulting to unpruned grid for atomic number  78.
 Defaulting to unpruned grid for atomic number  78.
 Defaulting to unpruned grid for atomic number  78.
 Defaulting to unpruned grid for atomic number  78.
 Defaulting to unpruned grid for atomic number  78.
 Defaulting to unpruned grid for atomic number  78.
 Defaulting to unpruned grid for atomic number  78.
 Defaulting to unpruned grid for atomic number  78.
 Defaulting to unpruned grid for atomic number  78.
 Defaulting to unpruned grid for atomic number  78.
 Defaulting to unpruned grid for atomic number  78.
 Defaulting to unpruned grid for atomic number  78.
 Defaulting to unpruned grid for atomic number  78.
 Defaulting to unpruned grid for atomic number  78.
 Defaulting to unpruned grid for atomic number  78.
 Defaulting to unpruned grid for atomic number  78.
 Defaulting to unpruned grid for atomic number  78.
 Defaulting to unpruned grid for atomic number  78.
 Defaulting to unpruned grid for atomic number  78.
 Defaulting to unpruned grid for atomic number  78.
 Defaulting to unpruned grid for atomic number  78.
 Defaulting to unpruned grid for atomic number  78.
 Defaulting to unpruned grid for atomic number  78.
 Defaulting to unpruned grid for atomic number  78.
 Defaulting to unpruned grid for atomic number  78.
 Defaulting to unpruned grid for atomic number  78.
 Defaulting to unpruned grid for atomic number  78.
 Defaulting to unpruned grid for atomic number  78.
 Defaulting to unpruned grid for atomic number  78.
 Defaulting to unpruned grid for atomic number  78.
 Defaulting to unpruned grid for atomic number  78.
 Defaulting to unpruned grid for atomic number  78.
 Defaulting to unpruned grid for atomic number  78.
[...]
 0285225,-0.02547079,0.00162356,0.02477963,-0.03659011,-0.00002056,-0.0
 2994591,0.01262581,-0.00067661,0.59742390,-0.01607309,0.01070217,-0.00
 009158,0.00751037,0.00049216,-0.00003355,-0.00602722,-0.01471399,-0.00
 021420,-0.01722781,0.00651779,-0.00017800,0.00339039,0.00707707,0.0001
 1064,0.00512620,-0.00518466,0.00006121,-0.00949327,-0.00136720,-0.0001
 6874,0.00018215,0.00032752,0.00000748,-0.00010310,0.00000464,-0.000002
 62,-0.00023013,-0.00020448,-0.00000115,0.02080862,0.00481266,0.0005231
 6,0.00373638,0.00195225,0.00008820,-0.00006150,0.00014273,0.00000245,-
 0.04308779,-0.15507380,-0.00168112,0.08037568,-0.18429903,-0.00045183,
 -0.00782537,0.00992507,0.00003988,-0.00003614,0.00049388,-0.00004641,-
 0.00018900,-0.00277717,-0.00000950,-0.00009877,0.00076149,-0.00024888,
 -0.00027633,0.00014638,-0.00000983,-0.00009830,0.00078823,0.00030487,-
 0.02038810,-0.22206899,-0.00211086,-0.00654220,-0.02466029,-0.00037563
 ,-0.00487040,-0.02447257,0.00185920,-0.00481353,-0.02404361,-0.0027860
 4,0.01041413,-0.02170272,-0.00008182,-0.01178645,0.00920044,-0.0002550
 1,0.03832481,0.75211812,-0.00030617,-0.00004497,-0.00042233,0.00018888
 ,0.00014134,-0.00236758,-0.00018669,-0.00025830,0.00177302,-0.00040684
 ,0.00001675,0.00124038,0.00007506,0.00003489,0.00052855,0.00005994,-0.
 00002074,0.00004469,-0.00008520,-0.00000880,-0.00011470,0.00000238,-0.
 00000201,-0.00025126,-0.00000026,-0.00000453,-0.00008127,-0.00000066,-
 0.00000289,0.00000505,0.00025059,0.00014201,0.00488668,0.00007956,0.00
 007187,-0.00015539,-0.00000339,0.00000151,-0.00015314,-0.00314766,-0.0
 0227580,-0.04063808,-0.00079543,-0.00078656,-0.05341554,-0.00022933,0.
 00042498,-0.00191543,-0.00000399,0.00001504,-0.00094763,0.00000428,-0.
 00005095,0.00013820,0.00006853,0.00002193,-0.00000827,-0.00001252,-0.0
 0000090,0.00006035,-0.00007472,0.00000931,0.00000419,-0.00078914,-0.00
 214834,-0.06152565,0.00013656,0.00037733,-0.00128037,0.00201459,0.0260
 0557,0.00771761,-0.00247275,-0.02753140,0.00718531,0.00026341,-0.00039
 482,-0.00115584,-0.00026069,0.00013511,-0.00110086,0.00620302,0.007538
 41,0.12023050,0.01462243,0.01667827,-0.00000977,-0.10570684,-0.0133819
 5,-0.00164486,-0.17549479,-0.05947816,-0.00253700,0.04689821,-0.016616
 32,0.00046359,-0.01995195,-0.03805569,-0.00075864,-0.02448037,0.021410
 02,-0.00030179,0.04097901,0.00541798,0.00060826,-0.00020693,0.00038764
 ,0.00006664,-0.00020688,-0.00002048,-0.00000607,0.00069330,0.00016559,
 0.00001832,-0.03137092,-0.02528964,-0.00096014,-0.01005622,-0.00636071
 ,-0.00024127,0.00038400,0.00004755,-0.00000240,-0.14438746,0.07517568,
 -0.00030933,-0.08537556,-0.04493488,-0.00169441,0.00137060,-0.00299975
 ,-0.00008351,0.00012387,0.00309921,0.00014937,0.00029330,0.00409917,-0
 .00000332,0.00003425,-0.00123505,0.00031756,0.00059921,-0.00010017,0.0
 0002164,0.00002759,-0.00127969,-0.00040117,-0.00333203,-0.00118840,-0.
 00007226,-0.00044075,0.00010278,-0.00000886,-0.00020882,0.00014051,-0.
 00043517,-0.00023162,0.00015631,0.00044088,-0.03700336,0.04595996,0.00
 000339,0.02504531,-0.01129331,0.00058199,0.00575298,-0.02328071,-0.000
 30945,0.75330166,0.05756102,-0.01975508,-0.00020714,-0.05224767,0.0211
 7278,0.00003087,-0.00867507,-0.13799513,-0.00100431,0.07196642,-0.0457
 6748,0.00041136,-0.08205144,-0.08478142,-0.00216085,-0.04001427,0.0504
 8804,-0.00040564,0.08764848,-0.00161906,0.00139376,-0.00034006,0.00215
 851,-0.00002546,-0.00052453,0.00041758,0.00006543,-0.00107928,-0.00061
 291,-0.00002260,-0.05694506,-0.04026546,-0.00165994,-0.01297690,-0.005
 06530,-0.00029183,0.00067115,0.00011719,0.00000686,-0.04529199,-0.1393
 9442,-0.00138273,-0.03429143,-0.00833872,-0.00063499,0.00049938,-0.005
 57035,-0.00010360,0.00118735,0.00100925,0.00037740,0.00044634,0.007363
 11,0.00000572,0.00016037,-0.00208315,0.00064712,0.00089428,-0.00017045
 ,0.00003163,0.00016320,-0.00215548,-0.00078964,-0.00485988,-0.00352225
 ,-0.00015716,-0.00027202,0.00059076,-0.00000147,0.00022483,-0.00024584
 ,-0.00077329,0.00019389,-0.00025355,0.00080707,-0.04404425,0.08691236,
 0.00038321,0.03528727,-0.02226128,0.00079862,-0.01551205,-0.04095162,-
 0.00083087,0.04849380,0.51393612,0.00077167,0.00001520,0.00549435,-0.0
 0241479,-0.00017852,0.00563807,-0.00186777,-0.00176713,-0.04673891,0.0
 0166424,-0.00081021,0.00234908,-0.00126859,-0.00163021,0.00591975,-0.0
 0085766,0.00097496,-0.00044635,0.00162795,0.00002040,0.00644101,0.0000
 5576,0.00004333,-0.00356778,-0.00000168,0.00000887,-0.00066164,0.00000
 391,-0.00000594,0.00000420,-0.00128216,-0.00094718,0.00275680,-0.00032
 163,-0.00015753,-0.00028260,0.00001368,0.00000285,-0.00003119,-0.00171
 976,0.00006789,-0.05713851,-0.00161349,-0.00068490,0.01461687,-0.00004
 253,-0.00015645,0.00548392,0.00004376,0.00006905,-0.00016233,0.0000039
 6,0.00014389,0.00018829,-0.00002578,-0.00006392,0.00000749,0.00002356,
 -0.00000303,-0.00002285,0.00003068,-0.00002444,-0.00002004,-0.00018558
 ,-0.00010078,0.00563949,-0.00000046,0.00000845,-0.00013128,-0.00051431
 ,-0.00073062,-0.00031324,0.00052895,0.00073732,-0.00025771,-0.00115883
 ,0.00185299,-0.00084002,0.00084023,-0.00043552,-0.00112797,0.00002580,
 -0.00071943,-0.00013044,0.00910864,0.00506953,0.10412223,-0.00664408,0
 .00153286,0.00018440,0.01687725,-0.00103151,0.00006610,-0.05092648,-0.
 01870362,-0.00081169,-0.01549541,0.00738752,-0.00015377,0.01228307,0.0
 1355537,0.00030355,0.00816801,-0.00763056,0.00011439,-0.01488340,-0.00
 119353,-0.00026113,0.00028904,0.00008712,0.00000733,0.00007827,-0.0000
 8209,-0.00000179,0.00020422,0.00019030,0.00000682,0.00771996,0.0073382
 7,0.00019810,0.00270354,0.00135310,0.00006004,-0.00013182,-0.00003294,
 -0.00000048,-0.01273881,0.04110934,0.00015590,-0.15061626,-0.14825723,
 -0.00255273,-0.00050676,-0.02169914,-0.00025842,-0.00022555,-0.0006557
 0,-0.00007371,-0.00002915,-0.00135228,-0.00000236,-0.00004254,0.000373
 94,-0.00011028,-0.00016903,0.00002262,-0.00000538,-0.00004060,0.000387
 69,0.00013680,-0.00777478,0.00157895,-0.00013928,0.00071411,0.00163743
 ,0.00003407,0.00022462,-0.00118830,-0.00010358,0.00022199,-0.00120433,
 0.00009088,0.01069885,-0.01509438,-0.00002286,-0.00709228,0.00326002,-
 0.00016117,-0.00497066,0.01054726,-0.00006267,-0.25444860,0.04799558,-
 0.00211203,0.57690419,0.00389583,-0.00308205,-0.00001255,-0.00983899,-
 0.00354242,-0.00018088,-0.01253542,0.02021355,0.00021720,0.00752461,-0
 .00309281,0.00005483,-0.00392948,-0.00386990,-0.00019569,-0.00411059,0
 .00502740,-0.00003551,0.00805219,-0.00009670,0.00012821,0.00013610,-0.
 00047359,-0.00002761,-0.00002568,0.00001153,-0.00000037,0.00001881,-0.
 00001746,-0.00000094,-0.00548238,-0.00432157,-0.00016749,-0.00177545,-
 0.00128104,-0.00004561,0.00009974,0.00004510,-0.00000020,0.01439500,-0
 .02188482,-0.00011737,-0.14570664,-0.39056268,-0.00520441,0.00293660,0
 .00619195,0.00008822,0.00040617,0.00056168,0.00003814,0.00008520,0.000
 73797,-0.00000045,0.00000951,-0.00023010,0.00005494,0.00005408,-0.0000
 1617,0.00000348,0.00000815,-0.00023762,-0.00006894,0.00470908,0.004688
 06,0.00008022,-0.00073043,-0.00129767,-0.00003831,-0.00085185,-0.00103
 968,0.00065361,-0.00084545,-0.00106061,-0.00070241,-0.00617225,0.00868
 216,0.00000798,0.00463641,-0.00176909,0.00010819,0.04751906,-0.0800543
 4,-0.00041408,0.01995106,-0.13656425,-0.00087146,-0.03397576,0.9270071
 6,-0.00010031,-0.00000603,0.00048309,0.00017831,-0.00012102,0.00132972
 ,-0.00099492,0.00000111,-0.00527056,-0.00025983,0.00011196,0.00136167,
 0.00016948,0.00011981,-0.00040482,0.00012531,-0.00009745,-0.00014943,-
 0.00020038,-0.00002411,0.00006823,0.00000019,-0.00003764,-0.00032059,0
 .00000158,-0.00000043,-0.00005918,0.00000046,0.00000157,0.00005181,0.0
 0011595,0.00009464,-0.00031209,0.00003682,0.00001762,-0.00006106,-0.00
 000163,-0.00000016,0.00002026,0.00001049,0.00010858,0.00777499,-0.0025
 1990,-0.00529294,-0.05905934,0.00000660,-0.00020220,0.00133506,0.00000
 649,-0.00001142,0.00011573,-0.00000199,-0.00002263,0.00001205,-0.00001
 035,0.00000129,0.00000388,-0.00000143,0.00000126,-0.00001417,0.0000095
 2,0.00001013,0.00000748,-0.00004534,0.00006198,0.00123905,-0.00000655,
 -0.00000117,0.00029646,-0.00006883,-0.00024039,-0.00008872,0.00005292,
 0.00019942,-0.00009809,0.00013359,-0.00021384,0.00021306,-0.00009918,0
 .00005499,0.00001352,0.00014638,-0.00087998,0.01619785,-0.00214661,-0.
 00031176,-0.04388982,0.00530453,0.00852409,0.10162406,-0.00703245,-0.0
 0156514,-0.00040527,0.01724985,0.00083837,0.00045304,-0.01598377,-0.00
 764171,-0.00040199,-0.05072724,0.01994994,-0.00055226,0.00864757,0.008
 06780,0.00016727,0.01228585,-0.01402925,0.00010083,-0.01551459,0.00144
 706,-0.00023415,0.00008328,0.00008616,0.00000703,0.00030606,-0.0000815
 0,0.00001224,0.00019357,-0.00019548,-0.00000142,-0.01338735,-0.0410735
 3,-0.00074646,-0.14582871,0.14416304,0.00011517,-0.00019862,0.02178535
 ,0.00024888,0.00797140,-0.00780560,0.00001910,0.00279968,-0.00153516,0
 .00002482,-0.00013700,0.00003738,-0.00000129,-0.00024102,0.00068318,0.
 00004764,-0.00788686,-0.00139549,-0.00005920,0.00025355,0.00117654,0.0
 0012320,0.00070261,-0.00167163,-0.00003923,0.00026232,0.00119411,-0.00
 008201,-0.00001850,0.00136992,0.00000757,-0.00017030,-0.00001898,-0.00
 000265,-0.00004833,-0.00038777,0.00011607,-0.00004139,-0.00039147,-0.0
 0013366,-0.25535279,-0.04653517,-0.00423477,-0.00603570,-0.01155312,-0
 .00070818,-0.00739440,-0.00322025,-0.00006977,0.01128480,0.01554605,0.
 00037952,-0.00407088,0.00183492,-0.00005269,0.57805190,-0.00363793,-0.
 00304518,-0.00011797,0.00933301,-0.00364542,0.00011745,-0.00702751,-0.
 00276218,-0.00016986,0.01386809,0.01939009,0.00052462,0.00393945,0.004
 68549,0.00009273,0.00348371,-0.00355529,0.00005361,-0.00748697,0.00001
 887,-0.00012426,0.00002147,0.00001095,0.00000040,-0.00013792,-0.000468
 10,0.00002411,-0.00001965,-0.00001288,-0.00000089,-0.01474148,-0.02125
 946,-0.00059557,0.14159143,-0.39557660,-0.00146938,-0.00283179,0.00586
 647,0.00001867,0.00509958,-0.00411254,0.00001096,0.00167900,-0.0013446
 3,0.00000695,-0.00009452,0.00004457,-0.00000111,-0.00038910,0.00052541
 ,0.00000486,-0.00449494,0.00474792,-0.00004686,0.00080269,-0.00104640,
 0.00066021,0.00069535,-0.00127817,-0.00003274,0.00084444,-0.00110438,-
 0.00068516,-0.00007419,0.00069043,0.00000292,-0.00004502,-0.00001529,-
 0.00000047,-0.00001257,-0.00021965,0.00005307,-0.00000958,-0.00022130,
 -0.00006166,-0.01806977,-0.13498833,-0.00141496,-0.04867805,-0.0789983
 7,-0.00185814,-0.00449090,-0.00156360,-0.00004468,0.00596131,0.0080564
 6,0.00020093,-0.00164155,0.00143380,-0.00001684,0.03970636,0.92580457,
 -0.00013553,-0.00004696,0.00048865,0.00031606,-0.00006859,0.00130520,-
 0.00029190,-0.00014016,0.00137014,-0.00051365,0.00058454,-0.00531074,0
 .00015938,0.00017033,-0.00014695,0.00025297,-0.00021478,-0.00046127,-0
 .00031040,0.00001813,0.00006621,0.00000366,0.00000241,-0.00006092,0.00
 000457,0.00000589,-0.00032469,0.00000283,-0.00000447,0.00005092,-0.000
 62700,-0.00111628,0.00783841,0.00007387,-0.00145282,-0.05908672,-0.000
 05637,0.00043548,0.00132799,0.00014811,-0.00015592,-0.00031819,0.00005
 221,-0.00002588,-0.00006044,-0.00000309,0.00000115,0.00002024,-0.00001
 768,0.00001309,0.00011693,-0.00024839,0.00002611,0.00124224,0.00008207
 ,-0.00020102,-0.00008078,0.00002357,-0.00005821,0.00029753,-0.00003201
 ,0.00024190,-0.00010047,-0.00000072,0.00001914,0.00001261,-0.00000199,
 0.00000016,-0.00001419,0.00000888,-0.00001036,0.00000730,-0.00001030,-
 0.00000165,0.00000319,-0.00401653,-0.00179003,-0.04397439,-0.00086928,
 -0.00130688,0.01612181,-0.00012239,-0.00004654,0.00001284,0.00020834,0
 .00027895,0.00021757,-0.00007246,0.00003929,-0.00008263,0.00891574,0.0
 1049577,0.10199417,0.00033854,0.00088706,0.00002290,-0.00035073,0.0001
 9367,-0.00000622,0.00213165,0.00090109,0.00005483,0.00008980,-0.000005
 25,0.00000008,-0.00055124,-0.00013235,-0.00005674,-0.00002063,0.000167
 38,0.00000234,0.00040085,-0.00028376,0.00000120,-0.00077346,-0.0003533
 9,-0.00005552,0.00001693,-0.00002513,0.00000093,0.00000959,0.00000366,
 0.00000018,-0.00010688,-0.00022386,-0.00001067,-0.00002209,0.00003416,
 0.00000006,-0.00000498,-0.00000363,-0.00000010,-0.00520361,-0.00247606
 ,-0.00013655,0.01290487,-0.01050391,0.00002514,-0.00007769,0.00077648,
 0.00004710,0.00004931,0.00006799,-0.00000110,0.00000668,-0.00003687,-0
 .00000060,-0.00000430,0.00000791,-0.00000227,0.00000238,-0.00000047,0.
 00000010,-0.00000421,0.00000802,0.00000269,0.00125690,0.00007751,0.000
 00283,-0.00013095,-0.00037791,-0.00000656,-0.00003735,0.00000555,0.000
 03007,-0.00003280,-0.00000159,-0.00003080,-0.00008134,0.00005021,0.000
 00060,-0.00010662,-0.00002938,-0.00000142,-0.00136602,-0.00472656,-0.0
 0013121,-0.00842550,0.03024826,0.00026558,-0.10625807,0.10968801,0.000
 21179,-0.00002040,-0.00002148,-0.00000048,0.10638230,-0.00026226,0.000
 15481,-0.00000090,0.00040857,-0.00002015,0.00000385,-0.00056398,-0.000
 70611,-0.00001104,-0.00041387,0.00021301,-0.00000316,0.00002417,0.0004
 5787,-0.00001523,0.00023162,-0.00026701,0.00000244,-0.00044432,-0.0000
 3123,-0.00000746,-0.00019009,-0.00015372,-0.00007158,0.00000773,-0.000
 00472,-0.00000014,0.00001010,0.00001222,0.00000018,0.00023464,0.000195
 53,0.00000445,0.00009468,0.00003847,0.00000222,-0.00000205,0.,0.000000
 04,-0.00125338,0.00037353,-0.00004361,0.01395634,-0.00730602,0.0000755
 1,-0.00025126,0.00040740,0.00003801,0.00002959,-0.00002953,-0.00000201
 ,-0.00000337,-0.00001867,0.00000006,0.00000230,0.00000747,-0.00000138,
 -0.00001218,0.00000029,-0.00000030,0.00000221,0.00000773,0.00000190,0.
 00102671,-0.00002927,0.00000094,-0.00019673,-0.00032220,-0.00000732,-0
 .00000998,0.00002751,-0.00000390,-0.00000554,0.00002112,0.00000498,0.0
 0032185,-0.00044972,0.00000052,-0.00016368,0.00009435,-0.00000261,-0.0
 0244032,-0.00241679,-0.00011832,-0.00140568,0.00559658,0.00008173,0.11
 528666,-0.32004363,-0.00182962,-0.00010302,-0.00005821,-0.00000207,-0.
 12391548,0.32424424,-0.00000172,0.00000992,0.00036313,0.00000145,0.000
 00663,-0.00013256,0.00003845,0.00001283,-0.00059164,0.00000569,-0.0000
 0977,-0.00001340,-0.00004271,0.00000056,-0.00006528,-0.00000557,0.0000
 1173,-0.00001379,0.00001621,-0.00000397,-0.00011289,-0.00005701,-0.000
 09262,0.00032855,-0.00000019,-0.00000073,0.00001532,-0.00000012,-0.000
 00007,0.00003653,-0.00001720,-0.00001042,0.00021871,-0.00000178,-0.000
 00026,-0.00002344,-0.00000013,-0.00000005,0.00000413,-0.00012143,-0.00
 005700,0.00303306,0.00028734,-0.00018992,0.00084032,0.00003717,0.00004
 955,-0.00342008,0.00000151,0.00000274,0.00004711,-0.00000023,0.0000001
 2,0.00001616,-0.00000389,-0.00000172,-0.00000020,0.00000054,0.,0.00000
 042,0.00000384,0.00000127,-0.00000023,0.00001072,-0.00001856,0.0014474
 4,-0.00000610,-0.00001330,-0.00003826,0.00014779,-0.00022208,-0.000061
 78,-0.00014615,0.00022745,-0.00006203,-0.00000295,0.00001304,-0.000093
 46,0.00000588,-0.00000255,-0.00011305,-0.00009514,-0.00013873,0.005752
 49,-0.00007121,0.00043751,-0.00302466,0.00024508,-0.00191654,-0.022347
 58,0.00000012,0.00000110,0.00001009,-0.00022816,0.00190382,0.01800441,
 0.00033452,-0.00089435,-0.00002449,-0.00036401,-0.00017974,0.00000019,
 0.00009832,-0.00000044,0.00000325,0.00212450,-0.00094998,0.00003399,-0
 .00001734,-0.00016781,-0.00000107,-0.00056160,0.00013632,-0.00005391,0
 .00041320,0.00029370,0.00001122,0.00001998,0.00002596,-0.00000034,-0.0
 0084704,0.00037645,-0.00008466,0.00000904,-0.00000452,-0.00000117,-0.0
 0514929,0.00256557,-0.00010667,0.01285648,0.01016482,0.00033828,-0.000
 08709,-0.00076615,0.00005016,-0.00012531,0.00022919,-0.00000138,-0.000
 02351,-0.00002944,0.00000020,-0.00000458,0.00000376,-0.00000016,0.0000
 4742,-0.00006090,0.00000187,0.00124308,-0.00010168,-0.00001566,-0.0000
 3273,0.00000128,-0.00002905,-0.00012214,0.00037553,0.00000688,-0.00003
 901,-0.00000245,0.00003230,0.00000700,0.00003157,0.00000012,0.00000165
 ,0.00000064,-0.00000004,-0.00000412,-0.00000662,0.00000172,-0.00000381
 ,-0.00000673,-0.00000212,-0.00887530,-0.02997818,-0.00047051,-0.001228
 95,0.00472439,-0.00006430,-0.00008884,0.00004002,0.00000174,-0.0000819
 3,-0.00006174,-0.00000081,-0.00002195,0.00001982,-0.00000046,-0.110002
 15,-0.11312098,-0.00292210,-0.00001095,0.00000002,-0.00000008,0.110536
 47,0.00026119,0.00016613,0.00000664,-0.00040413,-0.00001109,-0.0000090
 9,0.00041447,0.00020751,0.00000989,0.00052261,-0.00069792,0.00000780,-
 0.00023415,-0.00026155,-0.00000519,0.00001094,0.00043025,0.00002098,0.
 00043632,-0.00003851,0.00000739,-0.00000709,-0.00000480,-0.00000031,0.
 00021585,-0.00014719,0.00003336,-0.00000994,0.00001213,-0.00000011,0.0
 0134519,0.00030897,-0.00001237,-0.01429927,-0.00724335,-0.00035446,0.0
 0025925,0.00041754,0.00005003,-0.00023463,0.00019506,-0.00000310,-0.00
 009425,0.00004524,-0.00000049,0.00000224,-0.00000004,-0.00000002,-0.00
 003109,-0.00002490,-0.00000177,-0.00104739,-0.00001084,-0.00002167,0.0
 0001155,0.00002792,-0.00000317,0.00019430,-0.00033117,-0.00000463,0.00
 000549,0.00002013,0.00000452,0.00000305,-0.00002035,-0.00000020,0.0000
 1173,0.00000005,0.00000024,-0.00000198,0.00000804,-0.00000166,-0.00000
 199,0.00000809,0.00000189,0.00163963,0.00608713,0.00013773,0.00242524,
 -0.00254379,-0.00007021,0.00017335,0.00009228,0.00000290,-0.00032624,-
 0.00044553,-0.00001012,0.00009890,-0.00006216,0.00000119,-0.11868190,-
 0.31599905,-0.00568973,0.00000011,0.00000485,0.00000002,0.12734266,0.3
 1981090,-0.00000511,-0.00001556,0.00036378,-0.00000241,0.00000125,-0.0
 0013059,-0.00000941,-0.00001124,-0.00001396,0.00003921,-0.00000621,-0.
 00059831,0.00000783,0.00000775,-0.00001378,-0.00004604,-0.00002189,-0.
 00004085,-0.00000215,0.00000561,-0.00011096,0.00000011,0.00000011,0.00
 001522,-0.00009031,0.00005855,0.00033523,-0.00000065,-0.00000030,0.000
 03548,-0.00009555,0.00000066,0.00304488,0.00006124,0.00011600,0.000857
 78,0.00005929,0.00003364,-0.00341948,0.00001267,-0.00000636,0.00021794
 ,0.00000331,-0.00000306,-0.00002330,-0.00000023,0.,0.00000424,-0.00000
 240,0.00000057,0.00004712,-0.00001258,-0.00002763,0.00144288,-0.000150
 30,-0.00021692,-0.00006658,0.00000514,-0.00000695,-0.00003918,0.000149
 29,0.00022640,-0.00005661,-0.00000014,0.00000246,0.00001584,-0.0000003
 6,-0.00000014,0.00000049,0.00000372,-0.00000229,0.00000006,-0.00000390
 ,0.00000077,-0.00000044,-0.00005297,-0.00042350,-0.00304678,-0.0001467
 5,-0.00000420,0.00575894,-0.00001078,-0.00000410,-0.00011392,0.0000086
 1,0.00001824,-0.00009177,-0.00000218,0.00000242,0.00001010,-0.00301324
 ,-0.00562779,-0.02248167,-0.00000003,-0.00000002,-0.00000355,0.0032970
 8,0.00590373,0.01810174\\-0.00000553,0.00002053,0.00000157,0.00000189,
 -0.00002905,-0.00000072,-0.00003231,0.00002855,-0.00000106,0.00002139,
 0.00003929,-0.00000176,0.00000262,-0.00002267,-0.00000056,0.00001982,-
 0.00003533,-0.00000119,-0.00000981,-0.00000876,-0.00000250,0.00000179,
 0.00000204,0.00000039,-0.00000062,-0.00000521,-0.00000362,0.00000394,-
 0.00000180,-0.00000168,0.00001792,0.00001123,-0.00000098,0.00000269,0.
 00001689,-0.00000252,0.00000139,-0.00000548,-0.00000391,-0.00000554,0.
 00000146,0.00000090,-0.00000536,0.00002841,0.00000239,-0.00000054,0.00
 000479,0.00000450,-0.00000327,0.00000873,0.00000172,-0.00000860,0.0000
 0342,0.00000445,-0.00000046,-0.00000468,-0.00000206,-0.00000115,-0.000
 00264,-0.00000137,-0.00000005,-0.00000595,-0.00000613,-0.00000300,0.00
 000657,0.00000511,-0.00000190,0.00000070,0.00000364,-0.00000182,0.0000
 0302,0.00000449,-0.00000459,0.00000237,0.00000250,-0.00000049,-0.00003
 255,-0.00000226,-0.00001576,0.00000287,-0.00000392,0.00001325,0.000002
 19,0.00000434,0.00001700,-0.00000405,0.00000225,-0.00002176,-0.0000067
 3,0.00000271,0.00001202,-0.00001960,-0.00000300,0.00000293,0.00000136,
 0.00000241,0.00000389,0.00000009,-0.00000414\\\@


 DEPRESSION IS WAITING FOR YOUR SHIP TO COME IN,
 AND FINDING OUT IT'S THE TITANIC.
 Job cpu time:       0 days 17 hours  1 minutes 44.7 seconds.
 Elapsed time:       0 days  0 hours 18 minutes 23.5 seconds.
 File lengths (MBytes):  RWF=   1981 Int=      0 D2E=      0 Chk=     67 Scr=      1
 Normal termination of Gaussian 16 at Sun Feb  8 22:52:35 2026.
