 Entering Gaussian System, Link 0=g16
 Input=15_1_nacme.com
 Output=15_1_nacme.log
 Initial command:
 /home/software/g16-shuai/g16/l1.exe "/tmp/zgshuai_230097/g16_tmp/Gau-2458970.inp" -scrdir="/tmp/zgshuai_230097/g16_tmp/"
 Entering Link 1 = /home/software/g16-shuai/g16/l1.exe PID=   2458971.
  
 Copyright (c) 1988-2019, Gaussian, Inc.  All Rights Reserved.
  
 This is part of the Gaussian(R) 16 program.  It is based on
 the Gaussian(R) 09 system (copyright 2009, Gaussian, Inc.),
 the Gaussian(R) 03 system (copyright 2003, Gaussian, Inc.),
 the Gaussian(R) 98 system (copyright 1998, Gaussian, Inc.),
 the Gaussian(R) 94 system (copyright 1995, Gaussian, Inc.),
 the Gaussian 92(TM) system (copyright 1992, Gaussian, Inc.),
 the Gaussian 90(TM) system (copyright 1990, Gaussian, Inc.),
 the Gaussian 88(TM) system (copyright 1988, Gaussian, Inc.),
 the Gaussian 86(TM) system (copyright 1986, Carnegie Mellon
 University), and the Gaussian 82(TM) system (copyright 1983,
 Carnegie Mellon University). Gaussian is a federally registered
 trademark of Gaussian, Inc.
  
 This software contains proprietary and confidential information,
 including trade secrets, belonging to Gaussian, Inc.
  
 This software is provided under written license and may be
 used, copied, transmitted, or stored only in accord with that
 written license.
  
 The following legend is applicable only to US Government
 contracts under FAR:
  
                    RESTRICTED RIGHTS LEGEND
  
 Use, reproduction and disclosure by the US Government is
 subject to restrictions as set forth in subparagraphs (a)
 and (c) of the Commercial Computer Software - Restricted
 Rights clause in FAR 52.227-19.
  
 Gaussian, Inc.
 340 Quinnipiac St., Bldg. 40, Wallingford CT 06492
  
  
 ---------------------------------------------------------------
 Warning -- This program may not be used in any manner that
 competes with the business of Gaussian, Inc. or will provide
 assistance to any competitor of Gaussian, Inc.  The licensee
 of this program is prohibited from giving any competitor of
 Gaussian, Inc. access to this program.  By using this program,
 the user acknowledges that Gaussian, Inc. is engaged in the
 business of creating and licensing software in the field of
 computational chemistry and represents and warrants to the
 licensee that it is not a competitor of Gaussian, Inc. and that
 it will not use this program in any manner prohibited above.
 ---------------------------------------------------------------
  

 Cite this work as:
 Gaussian 16, Revision C.01,
 M. J. Frisch, G. W. Trucks, H. B. Schlegel, G. E. Scuseria, 
 M. A. Robb, J. R. Cheeseman, G. Scalmani, V. Barone, 
 G. A. Petersson, H. Nakatsuji, X. Li, M. Caricato, A. V. Marenich, 
 J. Bloino, B. G. Janesko, R. Gomperts, B. Mennucci, H. P. Hratchian, 
 J. V. Ortiz, A. F. Izmaylov, J. L. Sonnenberg, D. Williams-Young, 
 F. Ding, F. Lipparini, F. Egidi, J. Goings, B. Peng, A. Petrone, 
 T. Henderson, D. Ranasinghe, V. G. Zakrzewski, J. Gao, N. Rega, 
 G. Zheng, W. Liang, M. Hada, M. Ehara, K. Toyota, R. Fukuda, 
 J. Hasegawa, M. Ishida, T. Nakajima, Y. Honda, O. Kitao, H. Nakai, 
 T. Vreven, K. Throssell, J. A. Montgomery, Jr., J. E. Peralta, 
 F. Ogliaro, M. J. Bearpark, J. J. Heyd, E. N. Brothers, K. N. Kudin, 
 V. N. Staroverov, T. A. Keith, R. Kobayashi, J. Normand, 
 K. Raghavachari, A. P. Rendell, J. C. Burant, S. S. Iyengar, 
 J. Tomasi, M. Cossi, J. M. Millam, M. Klene, C. Adamo, R. Cammi, 
 J. W. Ochterski, R. L. Martin, K. Morokuma, O. Farkas, 
 J. B. Foresman, and D. J. Fox, Gaussian, Inc., Wallingford CT, 2019.
 
 ******************************************
 Gaussian 16:  ES64L-G16RevC.01  3-Jul-2019
                 9-Feb-2026 
 ******************************************
 %nprocshared=56
 Will use up to   56 processors via shared memory.
 %mem=120GB
 %chk=s0_nacme.chk
 ----------------------------------------------------------------------
 #p td(singlet,nstate=10) TPSSh/def2svp scrf=solvent=CH2Cl2 empiricaldi
 spersion=gd3bj prop=(fitcharge,field) IOp(6/22=-4,6/29=1,6/30=0,6/17=2
 ,3/174=1000000,3/175=2238200,3/177=452900,3/178=4655000) nosymm
 ----------------------------------------------------------------------
 1/38=1,172=1/1;
 2/12=2,15=1,17=6,18=5,40=1/2;
 3/5=43,7=101,11=9,25=1,30=1,70=2201,72=9,74=-35,124=41,174=1000000,175=2238200,177=452900,178=4655000/1,2,3,8;
 4//1;
 5/5=2,38=5,53=9/2;
 8/6=1,10=1,108=10/1;
 9/41=10,42=1,48=1,70=2/14;
 6/7=2,8=2,9=2,10=2,14=2,15=8,17=2,22=-4,29=1/1,2;
 99/5=1,9=1/99;
 Leave Link    1 at Mon Feb  9 16:27:13 2026, MaxMem= 16106127360 cpu:               1.5 elap:               0.0
 (Enter /home/software/g16-shuai/g16/l101.exe)
 -------------
 test2-s0nacme
 -------------
 Symbolic Z-matrix:
 Charge =  0 Multiplicity = 1
 Pt                    0.48596  -0.41134  -0.01371 
 C                     0.50197   1.53842   0.00327 
 C                    -0.70006   2.24983  -0.00819 
 C                     1.71545   2.22972   0.03112 
 C                    -0.71202   3.64781   0.00748 
 C                     1.74994   3.62732   0.04742 
 C                     0.52449   4.31664   0.03512 
 H                    -1.64389   4.21566  -0.0006 
 H                     2.69077   4.1797    0.06927 
 H                     0.53342   5.40829   0.04774 
 C                     2.5019   -0.02773   0.02128 
 C                     4.74278   0.28489   0.05575 
 H                     5.78563  -0.01723   0.06707 
 C                    -1.5234    0.00572  -0.04252 
 C                    -3.7588    0.35597  -0.07339 
 H                    -4.80649   0.07146  -0.0917 
 Cl                    0.46723  -2.86986  -0.02052 
 C                     3.90088  -2.09011   0.01775 
 H                     4.45482  -2.39675   0.91594 
 H                     2.9105   -2.56367   0.00455 
 H                     4.46939  -2.3776   -0.87773 
 C                    -2.95592  -2.03296  -0.08114 
 H                    -1.9735   -2.52287  -0.06749 
 H                    -3.53748  -2.32753   0.80356 
 H                    -3.50627  -2.31389  -0.98993 
 N                     2.80873   1.32329   0.03937 
 N                     3.70813  -0.64314   0.03178 
 N                    -2.73961  -0.58934  -0.06615 
 N                    -1.80791   1.36169  -0.03477 
 C                    -3.17112   1.58729  -0.05354 
 C                     4.17557   1.52592   0.06062 
 H                    -3.60616   2.58152  -0.05155 
 H                     4.6274    2.51254   0.07714 
 
 ITRead=  0  0  0  0  0  0  0  0  0  0  0  0  0  0  0  0  0  0  0  0
 ITRead=  0  0  0  0  0  0  0  0  0  0  0  0  0
 MicOpt= -1 -1 -1 -1 -1 -1 -1 -1 -1 -1 -1 -1 -1 -1 -1 -1 -1 -1 -1 -1
 MicOpt= -1 -1 -1 -1 -1 -1 -1 -1 -1 -1 -1 -1 -1
 NAtoms=     33 NQM=       33 NQMF=       0 NMMI=      0 NMMIF=      0
                NMic=       0 NMicF=      0.
                    Isotopes and Nuclear Properties:
 (Nuclear quadrupole moments (NQMom) in fm**2, nuclear magnetic moments (NMagM)
  in nuclear magnetons)

  Atom         1           2           3           4           5           6           7           8           9          10
 IAtWgt=         195          12          12          12          12          12          12           1           1           1
 AtmWgt= 194.9648000  12.0000000  12.0000000  12.0000000  12.0000000  12.0000000  12.0000000   1.0078250   1.0078250   1.0078250
 NucSpn=           1           0           0           0           0           0           0           1           1           1
 AtZEff=  -0.0000000  -0.0000000  -0.0000000  -0.0000000  -0.0000000  -0.0000000  -0.0000000  -0.0000000  -0.0000000  -0.0000000
 NQMom=    0.0000000   0.0000000   0.0000000   0.0000000   0.0000000   0.0000000   0.0000000   0.0000000   0.0000000   0.0000000
 NMagM=    0.6095000   0.0000000   0.0000000   0.0000000   0.0000000   0.0000000   0.0000000   2.7928460   2.7928460   2.7928460
 AtZNuc=  78.0000000   6.0000000   6.0000000   6.0000000   6.0000000   6.0000000   6.0000000   1.0000000   1.0000000   1.0000000

  Atom        11          12          13          14          15          16          17          18          19          20
 IAtWgt=          12          12           1          12          12           1          35          12           1           1
 AtmWgt=  12.0000000  12.0000000   1.0078250  12.0000000  12.0000000   1.0078250  34.9688527  12.0000000   1.0078250   1.0078250
 NucSpn=           0           0           1           0           0           1           3           0           1           1
 AtZEff=  -0.0000000  -0.0000000  -0.0000000  -0.0000000  -0.0000000  -0.0000000  -0.0000000  -0.0000000  -0.0000000  -0.0000000
 NQMom=    0.0000000   0.0000000   0.0000000   0.0000000   0.0000000   0.0000000  -8.1650000   0.0000000   0.0000000   0.0000000
 NMagM=    0.0000000   0.0000000   2.7928460   0.0000000   0.0000000   2.7928460   0.8218740   0.0000000   2.7928460   2.7928460
 AtZNuc=   6.0000000   6.0000000   1.0000000   6.0000000   6.0000000   1.0000000  17.0000000   6.0000000   1.0000000   1.0000000

  Atom        21          22          23          24          25          26          27          28          29          30
 IAtWgt=           1          12           1           1           1          14          14          14          14          12
 AtmWgt=   1.0078250  12.0000000   1.0078250   1.0078250   1.0078250  14.0030740  14.0030740  14.0030740  14.0030740  12.0000000
 NucSpn=           1           0           1           1           1           2           2           2           2           0
 AtZEff=  -0.0000000  -0.0000000  -0.0000000  -0.0000000  -0.0000000  -0.0000000  -0.0000000  -0.0000000  -0.0000000  -0.0000000
 NQMom=    0.0000000   0.0000000   0.0000000   0.0000000   0.0000000   2.0440000   2.0440000   2.0440000   2.0440000   0.0000000
 NMagM=    2.7928460   0.0000000   2.7928460   2.7928460   2.7928460   0.4037610   0.4037610   0.4037610   0.4037610   0.0000000
 AtZNuc=   1.0000000   6.0000000   1.0000000   1.0000000   1.0000000   7.0000000   7.0000000   7.0000000   7.0000000   6.0000000

  Atom        31          32          33
 IAtWgt=          12           1           1
 AtmWgt=  12.0000000   1.0078250   1.0078250
 NucSpn=           0           1           1
 AtZEff=  -0.0000000  -0.0000000  -0.0000000
 NQMom=    0.0000000   0.0000000   0.0000000
 NMagM=    0.0000000   2.7928460   2.7928460
 AtZNuc=   6.0000000   1.0000000   1.0000000
 Leave Link  101 at Mon Feb  9 16:27:13 2026, MaxMem= 16106127360 cpu:               3.4 elap:               0.1
 (Enter /home/software/g16-shuai/g16/l202.exe)
                          Input orientation:                          
 ---------------------------------------------------------------------
 Center     Atomic      Atomic             Coordinates (Angstroms)
 Number     Number       Type             X           Y           Z
 ---------------------------------------------------------------------
      1         78           0        0.485960   -0.411340   -0.013710
      2          6           0        0.501970    1.538420    0.003270
      3          6           0       -0.700060    2.249830   -0.008190
      4          6           0        1.715450    2.229720    0.031120
      5          6           0       -0.712020    3.647810    0.007480
      6          6           0        1.749940    3.627320    0.047420
      7          6           0        0.524490    4.316640    0.035120
      8          1           0       -1.643890    4.215660   -0.000600
      9          1           0        2.690770    4.179700    0.069270
     10          1           0        0.533420    5.408290    0.047740
     11          6           0        2.501900   -0.027730    0.021280
     12          6           0        4.742780    0.284890    0.055750
     13          1           0        5.785630   -0.017230    0.067070
     14          6           0       -1.523400    0.005720   -0.042520
     15          6           0       -3.758800    0.355970   -0.073390
     16          1           0       -4.806490    0.071460   -0.091700
     17         17           0        0.467230   -2.869860   -0.020520
     18          6           0        3.900880   -2.090110    0.017750
     19          1           0        4.454820   -2.396750    0.915940
     20          1           0        2.910500   -2.563670    0.004550
     21          1           0        4.469390   -2.377600   -0.877730
     22          6           0       -2.955920   -2.032960   -0.081140
     23          1           0       -1.973500   -2.522870   -0.067490
     24          1           0       -3.537480   -2.327530    0.803560
     25          1           0       -3.506270   -2.313890   -0.989930
     26          7           0        2.808730    1.323290    0.039370
     27          7           0        3.708130   -0.643140    0.031780
     28          7           0       -2.739610   -0.589340   -0.066150
     29          7           0       -1.807910    1.361690   -0.034770
     30          6           0       -3.171120    1.587290   -0.053540
     31          6           0        4.175570    1.525920    0.060620
     32          1           0       -3.606160    2.581520   -0.051550
     33          1           0        4.627400    2.512540    0.077140
 ---------------------------------------------------------------------
                    Distance matrix (angstroms):
                    1          2          3          4          5
     1  Pt   0.000000
     2  C    1.949900   0.000000
     3  C    2.913503   1.396822   0.000000
     4  C    2.913564   1.396855   2.415914   0.000000
     5  C    4.232293   2.433786   1.398119   2.811432   0.000000
     6  C    4.232276   2.433697   2.811240   1.398121   2.462369
     7  C    4.728389   2.778494   2.402728   2.402839   1.406078
     8  H    5.093679   3.431085   2.180679   3.902580   1.091284
     9  H    5.093694   3.430971   3.902323   2.180625   3.444663
    10  H    5.820148   3.870253   3.391234   3.391280   2.156857
    11  C    2.052412   2.540250   3.929465   2.390540   4.882527
    12  C    4.313940   4.422506   5.787019   3.598291   6.408307
    13  H    5.314918   5.508283   6.870910   4.649349   7.460263
    14  C    2.052388   2.540352   2.390627   3.929599   3.731710
    15  C    4.313967   4.422468   3.598173   5.786992   4.486159
    16  H    5.314998   5.508243   4.649197   6.870871   5.437352
    17  Cl   2.458601   4.408481   5.251090   5.250375   6.623552
    18  C    3.805383   4.971823   6.324903   4.841200   7.362247
    19  H    4.534088   5.651863   7.001251   5.448970   8.003639
    20  H    3.242106   4.756907   6.017149   4.940186   7.190629
    21  H    4.525530   5.643739   6.992312   5.444042   7.996010
    22  C    3.805356   4.971809   4.841128   6.324930   6.108526
    23  H    3.241974   4.756788   4.940023   6.017075   6.298749
    24  H    4.530760   5.648291   5.446294   6.997033   6.657451
    25  H    4.528863   5.647365   5.446666   6.996663   6.659169
    26  N    2.899486   2.317051   3.629373   1.420192   4.219015
    27  N    3.230817   3.878077   5.272856   3.496298   6.160403
    28  N    3.230903   3.878147   3.496285   5.272961   4.697870
    29  N    2.899296   2.316943   1.420152   3.629309   2.535568
    30  C    4.167774   3.673854   2.558741   4.929346   3.208838
    31  C    4.167940   3.674069   4.929559   2.558983   5.328581
    32  H    5.069920   4.238844   2.925289   5.333866   3.084883
    33  H    5.070390   4.239521   5.334616   2.926014   5.459221
                    6          7          8          9         10
     6  C    0.000000
     7  C    1.406073   0.000000
     8  H    3.444783   2.171024   0.000000
     9  H    1.091220   2.170873   4.335372   0.000000
    10  H    2.156797   1.091759   2.483019   2.482752   0.000000
    11  C    3.731691   4.773248   5.932488   4.211940   5.781516
    12  C    4.486535   5.835187   7.499579   4.402326   6.630837
    13  H    5.437824   6.816381   8.551006   5.214632   7.551315
    14  C    4.882502   4.773250   4.211872   5.932439   5.781558
    15  C    6.408006   5.834831   4.401744   7.499214   6.630518
    16  H    7.459911   6.815936   5.213898   8.550582   7.550883
    17  Cl   6.622938   7.186943   7.393363   7.392462   8.278696
    18  C    6.108717   7.242013   8.396877   6.385729   8.219896
    19  H    6.660339   7.828981   9.042028   6.861371   8.777801
    20  H    6.298976   7.282352   8.167118   6.747259   8.318925
    21  H    6.656604   7.823578   9.033971   6.859918   8.773166
    22  C    7.362093   7.241836   6.385387   8.396718   8.219751
    23  H    7.190414   7.282127   6.746918   8.166919   8.318727
    24  H    7.999300   7.825286   6.858986   9.037385   8.774190
    25  H    8.000113   7.826984   6.861651   9.038358   8.776555
    26  N    2.535676   3.765357   5.309729   2.859001   4.675931
    27  N    4.698040   5.893640   7.228631   4.929119   6.833655
    28  N    6.160290   5.893492   4.928785   7.228493   6.833539
    29  N    4.218783   3.765196   2.858884   5.309437   4.675853
    30  C    5.328109   4.595078   3.040323   6.410727   5.322961
    31  C    3.209320   4.595558   6.411284   3.040930   5.323365
    32  H    5.458141   4.481118   2.554117   6.497700   5.013642
    33  H    3.086000   4.482233   6.498903   2.555390   5.014669
                   11         12         13         14         15
    11  C    0.000000
    12  C    2.262844   0.000000
    13  H    3.284066   1.085790   0.000000
    14  C    4.025945   6.273165   7.309888   0.000000
    15  C    6.273161   8.502858   9.552756   2.262883   0.000000
    16  H    7.309936   9.552793  10.593681   3.284116   1.085788
    17  Cl   3.495616   5.314000   6.035772   3.497435   5.316776
    18  C    2.492101   2.520092   2.802061   5.815406   8.041288
    19  H    3.197901   2.830908   2.855477   6.513802   8.718933
    20  H    2.568701   3.387354   3.841177   5.124788   7.280792
    21  H    3.193920   2.834604   2.862950   6.503178   8.707610
    22  C    5.815431   8.041216   8.972170   2.491951   2.520251
    23  H    5.124725   7.280599   8.154780   2.568459   3.387484
    24  H    6.509620   8.714738   9.633290   3.196314   2.831819
    25  H    6.507471   8.711712   9.629709   3.195301   2.834073
    26  N    1.385542   2.195243   3.264919   4.528802   6.639343
    27  N    1.354190   1.390077   2.170026   5.272139   7.534210
    28  N    5.272236   7.534275   8.545453   1.354187   1.390112
    29  N    4.528586   6.639219   7.718396   1.385518   2.195208
    30  C    5.898902   8.021097   9.100132   2.283958   1.364519
    31  C    2.283976   1.364517   2.230167   5.899144   8.021282
    32  H    6.642431   8.659724   9.745424   3.312509   2.230885
    33  H    3.312679   2.230739   2.782325   6.643102   8.660358
                   16         17         18         19         20
    16  H    0.000000
    17  Cl   6.038920   0.000000
    18  C    8.972327   3.521282   0.000000
    19  H    9.637389   4.123307   1.098919   0.000000
    20  H    8.155066   2.462509   1.097855   1.800949   0.000000
    21  H    9.625886   4.122428   1.098972   1.793831   1.800883
    22  C    2.802375   3.524490   6.857751   7.486360   5.891000
    23  H    3.841480   2.465719   5.890916   6.504332   4.884702
    24  H    2.857802   4.124431   7.483520   7.993390   6.501586
    25  H    2.861343   4.127658   7.478728   8.186462   6.498178
    26  N    7.718538   4.802990   3.583931   4.161332   3.888448
    27  N    8.545446   3.932486   1.459819   2.101055   2.079757
    28  N    2.170093   3.935311   6.808484   7.482717   5.985543
    29  N    3.264876   4.804423   6.671429   7.365562   6.137865
    30  C    2.230164   5.753683   7.971295   8.658373   7.363419
    31  C    9.100333   5.751630   3.626702   4.024536   4.281155
    32  H    2.782590   6.805220   8.842204   9.523582   8.303191
    33  H    9.746059   6.803439   4.660016   4.983422   5.359191
                   21         22         23         24         25
    21  H    0.000000
    22  C    7.475865   0.000000
    23  H    6.495262   1.097883   0.000000
    24  H    8.181639   1.098944   1.800811   0.000000
    25  H    7.976704   1.098957   1.801097   1.793813   0.000000
    26  N    4.158780   6.671591   6.137922   7.361172   7.359875
    27  N    2.101208   6.808371   5.985329   7.478748   7.475484
    28  N    7.471694   1.459813   2.079775   2.101023   2.101240
    29  N    7.355091   3.583814   3.888225   4.159874   4.160126
    30  C    8.647372   3.626745   4.281110   4.024258   4.025960
    31  C    4.025456   7.971441   7.363435   8.654027   8.652078
    32  H    9.512621   4.660162   5.359163   4.983443   4.985536
    33  H    4.984999   8.842701   8.303502   9.519413   9.517860
                   26         27         28         29         30
    26  N    0.000000
    27  N    2.162366   0.000000
    28  N    5.869699   6.448708   0.000000
    29  N    4.617395   5.869452   2.162306   0.000000
    30  C    5.986396   7.232301   2.219026   1.381879   0.000000
    31  C    1.381941   2.219043   7.232573   5.986493   7.347833
    32  H    6.537754   7.994011   3.287168   2.173009   1.085245
    33  H    2.173316   3.287162   7.994687   6.538363   7.854303
                   31         32         33
    31  C    0.000000
    32  H    7.853801   0.000000
    33  H    1.085284   8.234855   0.000000
 Symmetry turned off by external request.
 Stoichiometry    C14H13ClN4Pt
 Framework group  C1[X(C14H13ClN4Pt)]
 Deg. of freedom    93
 Full point group                 C1      NOp   1
 Rotational constants (GHZ):           0.3754590           0.2763556           0.1595135
 Leave Link  202 at Mon Feb  9 16:27:13 2026, MaxMem= 16106127360 cpu:               0.2 elap:               0.0
 (Enter /home/software/g16-shuai/g16/l301.exe)
 Standard basis: def2SVP (5D, 7F)
 Ernie: Thresh=  0.10000D-02 Tol=  0.10000D-05 Strict=F.
   367 basis functions,   643 primitive gaussians,   391 cartesian basis functions
    80 alpha electrons       80 beta electrons
       nuclear repulsion energy      1853.6986529426 Hartrees.
 IExCor= 2523 DFT=T Ex+Corr=TPSSh ExCW=0 ScaHFX=  0.100000
 ScaDFX=  0.900000  0.900000  1.000000  1.000000 ScalE2=  1.000000  1.000000
 IRadAn=      5 IRanWt=     -1 IRanGd=            0 ICorTp=0 IEmpDi=141
 NAtoms=   33 NActive=   33 NUniq=   33 SFac= 1.00D+00 NAtFMM=   60 NAOKFM=F Big=F
 Integral buffers will be    131072 words long.
 Regular integral format.
 Two-electron integral symmetry is turned off.
 R6DIni: Non-standard D2/D3 S6 parameter, value=     1.000000
 R6DIni: Non-standard D2/D3 S8 parameter, value=     2.238200
 R6DIni: Non-standard D3BJ A1 parameter, value=     0.452900
 R6DIni: Non-standard D3BJ A2 parameter, value=     4.655000
 R6Disp:  Grimme-D3(BJ) Dispersion energy=       -0.0619815742 Hartrees.
 Nuclear repulsion after empirical dispersion term =     1853.6366713683 Hartrees.
 ------------------------------------------------------------------------------
 Polarizable Continuum Model (PCM)
 =================================
 Model                : PCM.
 Atomic radii         : UFF (Universal Force Field).
 Polarization charges : Total charges.
 Charge compensation  : None.
 Solution method      : On-the-fly selection.
 Cavity type          : Scaled VdW (van der Waals Surface) (Alpha=1.100).
 Cavity algorithm     : GePol (No added spheres)
                        Default sphere list used, NSphG=   33.
                        Lebedev-Laikov grids with approx.  5.0 points / Ang**2.
                        Smoothing algorithm: York/Karplus (Gamma=1.0000).
                        Polarization charges: spherical gaussians, with
                                              point-specific exponents (IZeta= 3).
                        Self-potential: point-specific (ISelfS= 7).
                        Self-field    : sphere-specific E.n sum rule (ISelfD= 2).
 Solvent              : Dichloromethane, Eps=   8.930000 Eps(inf)=   2.028346
 ------------------------------------------------------------------------------
 GePol: Number of generator spheres                  =      33
 GePol: Total number of spheres                      =      33
 GePol: Number of exposed spheres                    =      33 (100.00%)
 GePol: Number of points                             =    2564
 GePol: Average weight of points                     =       0.13
 GePol: Minimum weight of points                     =   0.16D-08
 GePol: Maximum weight of points                     =    0.21838
 GePol: Number of points with low weight             =     150
 GePol: Fraction of low-weight points (<1% of avg)   =       5.85%
 GePol: Cavity surface area                          =    342.517 Ang**2
 GePol: Cavity volume                                =    376.613 Ang**3
 Leave Link  301 at Mon Feb  9 16:27:13 2026, MaxMem= 16106127360 cpu:               2.3 elap:               0.1
 (Enter /home/software/g16-shuai/g16/l302.exe)
 NPDir=0 NMtPBC=     1 NCelOv=     1 NCel=       1 NClECP=     1 NCelD=      1
         NCelK=      1 NCelE2=     1 NClLst=     1 CellRange=     0.0.
 One-electron integrals computed using PRISM.
   1 Symmetry operations used in ECPInt.
 ECPInt:  NShTT=   14028 NPrTT=   51030 LenC2=   12720 LenP2D=   32483.
 LDataN:  DoStor=T MaxTD1= 8 Len=  415
 NBasis=   367 RedAO= T EigKep=  2.15D-04  NBF=   367
 NBsUse=   367 1.00D-06 EigRej= -1.00D+00 NBFU=   367
 Precomputing XC quadrature grid using
 IXCGrd= 4 IRadAn=           5 IRanWt=          -1 IRanGd=           0 AccXCQ= 0.00D+00.
 Defaulting to unpruned grid for atomic number  78.
 Generated NRdTot=       0 NPtTot=           0 NUsed=           0 NTot=          32
 NSgBfM=   389   389   389   389   389 MxSgAt=    33 MxSgA2=    33.
 Leave Link  302 at Mon Feb  9 16:27:13 2026, MaxMem= 16106127360 cpu:              18.6 elap:               0.3
 (Enter /home/software/g16-shuai/g16/l303.exe)
 DipDrv:  MaxL=1.
 Leave Link  303 at Mon Feb  9 16:27:13 2026, MaxMem= 16106127360 cpu:               1.8 elap:               0.0
 (Enter /home/software/g16-shuai/g16/l308.exe)
 Leave Link  308 at Mon Feb  9 16:27:13 2026, MaxMem= 16106127360 cpu:               2.2 elap:               0.1
 (Enter /home/software/g16-shuai/g16/l401.exe)
 ExpMin= 4.90D-02 ExpMax= 1.04D+04 ExpMxC= 1.57D+03 IAcc=3 IRadAn=         5 AccDes= 0.00D+00
 Harris functional with IExCor= 1009 and IRadAn=       5 diagonalized for initial guess.
 HarFok:  IExCor= 1009 AccDes= 0.00D+00 IRadAn=         5 IDoV= 1 UseB2=F ITyADJ=14
 ICtDFT=  3500011 ScaDFX=  1.000000  1.000000  1.000000  1.000000
 Defaulting to unpruned grid for atomic number  78.
 FoFCou: FMM=F IPFlag=           0 FMFlag=      100000 FMFlg1=           0
         NFxFlg=           0 DoJE=T BraDBF=F KetDBF=T FulRan=T
         wScrn=  0.000000 ICntrl=       500 IOpCl=  0 I1Cent=   200000004 NGrid=           0
         NMat0=    1 NMatS0=      1 NMatT0=    0 NMatD0=    1 NMtDS0=    0 NMtDT0=    0
 Symmetry not used in FoFCou.
 Harris En= -1338.24108410541    
 JPrj=0 DoOrth=F DoCkMO=F.
 Leave Link  401 at Mon Feb  9 16:27:14 2026, MaxMem= 16106127360 cpu:              34.9 elap:               0.7
 (Enter /home/software/g16-shuai/g16/l502.exe)
 Two-electron integral symmetry not used.
 Closed shell SCF:
 Using DIIS extrapolation, IDIIS=  1040.
 NGot= 16106127360 LenX= 16105795799 LenY= 16105642477
 Requested convergence on RMS density matrix=1.00D-08 within 128 cycles.
 Requested convergence on MAX density matrix=1.00D-06.
 Requested convergence on             energy=1.00D-06.
 No special actions if energy rises.
 Fock matrices will be formed incrementally for  20 cycles.

 Cycle   1  Pass 1  IDiag  1:
 FoFJK:  IHMeth= 1 ICntrl=       0 DoSepK=F KAlg= 0 I1Cent=           0 FoldK=F
 IRaf= 850000000 NMat=       1 IRICut=       1 DoRegI=T DoRafI=F ISym2E= 0 IDoP0=0 IntGTp=1.
 FoFCou: FMM=F IPFlag=           0 FMFlag=      100000 FMFlg1=           0
         NFxFlg=           0 DoJE=F BraDBF=F KetDBF=F FulRan=T
         wScrn=  0.000000 ICntrl=         0 IOpCl=  0 I1Cent=           0 NGrid=           0
         NMat0=    1 NMatS0=      1 NMatT0=    0 NMatD0=    1 NMtDS0=    0 NMtDT0=    0
 Symmetry not used in FoFCou.
 Defaulting to unpruned grid for atomic number  78.
 Defaulting to unpruned grid for atomic number  78.
 Defaulting to unpruned grid for atomic number  78.
 Defaulting to unpruned grid for atomic number  78.
 Defaulting to unpruned grid for atomic number  78.
 Defaulting to unpruned grid for atomic number  78.
 Defaulting to unpruned grid for atomic number  78.
 Defaulting to unpruned grid for atomic number  78.
 Defaulting to unpruned grid for atomic number  78.
 Defaulting to unpruned grid for atomic number  78.
 Defaulting to unpruned grid for atomic number  78.
 Defaulting to unpruned grid for atomic number  78.
 Defaulting to unpruned grid for atomic number  78.
 Defaulting to unpruned grid for atomic number  78.
 Defaulting to unpruned grid for atomic number  78.
 Defaulting to unpruned grid for atomic number  78.
 Defaulting to unpruned grid for atomic number  78.
 Defaulting to unpruned grid for atomic number  78.
 Defaulting to unpruned grid for atomic number  78.
 Defaulting to unpruned grid for atomic number  78.
 Defaulting to unpruned grid for atomic number  78.
 Defaulting to unpruned grid for atomic number  78.
 Defaulting to unpruned grid for atomic number  78.
 Defaulting to unpruned grid for atomic number  78.
 Defaulting to unpruned grid for atomic number  78.
 Defaulting to unpruned grid for atomic number  78.
 Defaulting to unpruned grid for atomic number  78.
 Defaulting to unpruned grid for atomic number  78.
 Defaulting to unpruned grid for atomic number  78.
 Defaulting to unpruned grid for atomic number  78.
 Defaulting to unpruned grid for atomic number  78.
 Defaulting to unpruned grid for atomic number  78.
 Defaulting to unpruned grid for atomic number  78.
 Defaulting to unpruned grid for atomic number  78.
 Defaulting to unpruned grid for atomic number  78.
 Defaulting to unpruned grid for atomic number  78.
 Defaulting to unpruned grid for atomic number  78.
 Defaulting to unpruned grid for atomic number  78.
 Defaulting to unpruned grid for atomic number  78.
 Defaulting to unpruned grid for atomic number  78.
 Defaulting to unpruned grid for atomic number  78.
 Defaulting to unpruned grid for atomic number  78.
 Defaulting to unpruned grid for atomic number  78.
 Defaulting to unpruned grid for atomic number  78.
 Defaulting to unpruned grid for atomic number  78.
 Defaulting to unpruned grid for atomic number  78.
 Defaulting to unpruned grid for atomic number  78.
 Defaulting to unpruned grid for atomic number  78.
 Defaulting to unpruned grid for atomic number  78.
 Defaulting to unpruned grid for atomic number  78.
 Defaulting to unpruned grid for atomic number  78.
 Defaulting to unpruned grid for atomic number  78.
 Defaulting to unpruned grid for atomic number  78.
 Defaulting to unpruned grid for atomic number  78.
 Defaulting to unpruned grid for atomic number  78.
 Defaulting to unpruned grid for atomic number  78.
 Inv3:  Mode=1 IEnd=    19722288.
 Iteration    1 A*A^-1 deviation from unit magnitude is 4.11D-15 for   2555.
 Iteration    1 A*A^-1 deviation from orthogonality  is 2.22D-15 for   2209   1386.
 Iteration    1 A^-1*A deviation from unit magnitude is 4.22D-15 for   2559.
 Iteration    1 A^-1*A deviation from orthogonality  is 2.12D-15 for   2563   2479.
 E= -1338.39783401987    
 DIIS: error= 6.51D-02 at cycle   1 NSaved=   1.
 NSaved= 1 IEnMin= 1 EnMin= -1338.39783401987     IErMin= 1 ErrMin= 6.51D-02
 ErrMax= 6.51D-02  0.00D+00 EMaxC= 1.00D-01 BMatC= 1.13D+00 BMatP= 1.13D+00
 IDIUse=3 WtCom= 3.49D-01 WtEn= 6.51D-01
 Coeff-Com:  0.100D+01
 Coeff-En:   0.100D+01
 Coeff:      0.100D+01
 Gap=     0.665 Goal=   None    Shift=    0.000
 GapD=    0.665 DampG=2.000 DampE=0.250 DampFc=0.5000 IDamp=-1.
 Damping current iteration by 5.00D-01
 RMSDP=1.18D-02 MaxDP=9.54D-01              OVMax= 7.34D-01

 Cycle   2  Pass 1  IDiag  1:
 RMSU=  5.92D-03    CP:  1.00D+00
 E= -1338.37064758814     Delta-E=        0.027186431738 Rises=F Damp=T
 DIIS: error= 2.25D-02 at cycle   2 NSaved=   2.
 NSaved= 2 IEnMin= 1 EnMin= -1338.39783401987     IErMin= 2 ErrMin= 2.25D-02
 ErrMax= 2.25D-02  0.00D+00 EMaxC= 1.00D-01 BMatC= 2.56D-01 BMatP= 1.13D+00
 IDIUse=3 WtCom= 7.75D-01 WtEn= 2.25D-01
 Coeff-Com:  0.283D+00 0.717D+00
 Coeff-En:   0.509D+00 0.491D+00
 Coeff:      0.334D+00 0.666D+00
 Gap=     0.059 Goal=   None    Shift=    0.000
 RMSDP=5.46D-03 MaxDP=4.14D-01 DE= 2.72D-02 OVMax= 6.24D-01

 Cycle   3  Pass 1  IDiag  1:
 RMSU=  3.48D-03    CP:  9.68D-01  2.97D-01
 E= -1339.23517711223     Delta-E=       -0.864529524093 Rises=F Damp=F
 DIIS: error= 2.20D-02 at cycle   3 NSaved=   3.
 NSaved= 3 IEnMin= 3 EnMin= -1339.23517711223     IErMin= 3 ErrMin= 2.20D-02
 ErrMax= 2.20D-02  0.00D+00 EMaxC= 1.00D-01 BMatC= 1.67D-01 BMatP= 2.56D-01
 IDIUse=3 WtCom= 7.80D-01 WtEn= 2.20D-01
 Coeff-Com:  0.181D+00 0.412D+00 0.407D+00
 Coeff-En:   0.554D-01 0.000D+00 0.945D+00
 Coeff:      0.154D+00 0.321D+00 0.526D+00
 Gap=     0.181 Goal=   None    Shift=    0.000
 RMSDP=2.20D-03 MaxDP=1.26D-01 DE=-8.65D-01 OVMax= 1.43D-01

 Cycle   4  Pass 1  IDiag  1:
 RMSU=  1.90D-03    CP:  9.69D-01  2.49D-01  6.91D-01
 E= -1339.35109980595     Delta-E=       -0.115922693718 Rises=F Damp=F
 DIIS: error= 1.36D-02 at cycle   4 NSaved=   4.
 NSaved= 4 IEnMin= 4 EnMin= -1339.35109980595     IErMin= 4 ErrMin= 1.36D-02
 ErrMax= 1.36D-02  0.00D+00 EMaxC= 1.00D-01 BMatC= 6.99D-02 BMatP= 1.67D-01
 IDIUse=3 WtCom= 8.64D-01 WtEn= 1.36D-01
 Coeff-Com:  0.159D-01 0.925D-01 0.363D+00 0.529D+00
 Coeff-En:   0.000D+00 0.000D+00 0.310D+00 0.690D+00
 Coeff:      0.137D-01 0.799D-01 0.356D+00 0.550D+00
 Gap=     0.141 Goal=   None    Shift=    0.000
 RMSDP=1.05D-03 MaxDP=6.47D-02 DE=-1.16D-01 OVMax= 6.77D-02

 Cycle   5  Pass 1  IDiag  1:
 RMSU=  5.50D-04    CP:  9.68D-01  2.82D-01  8.38D-01  6.32D-01
 E= -1339.41373418395     Delta-E=       -0.062634378003 Rises=F Damp=F
 DIIS: error= 3.60D-03 at cycle   5 NSaved=   5.
 NSaved= 5 IEnMin= 5 EnMin= -1339.41373418395     IErMin= 5 ErrMin= 3.60D-03
 ErrMax= 3.60D-03  0.00D+00 EMaxC= 1.00D-01 BMatC= 7.18D-03 BMatP= 6.99D-02
 IDIUse=3 WtCom= 9.64D-01 WtEn= 3.60D-02
 Coeff-Com: -0.529D-02 0.113D-01 0.167D+00 0.347D+00 0.480D+00
 Coeff-En:   0.000D+00 0.000D+00 0.000D+00 0.766D-01 0.923D+00
 Coeff:     -0.510D-02 0.109D-01 0.161D+00 0.337D+00 0.496D+00
 Gap=     0.141 Goal=   None    Shift=    0.000
 RMSDP=3.25D-04 MaxDP=1.80D-02 DE=-6.26D-02 OVMax= 2.19D-02

 Cycle   6  Pass 1  IDiag  1:
 RMSU=  1.58D-04    CP:  9.68D-01  2.75D-01  8.16D-01  6.96D-01  5.64D-01
 E= -1339.42022633188     Delta-E=       -0.006492147929 Rises=F Damp=F
 DIIS: error= 1.57D-03 at cycle   6 NSaved=   6.
 NSaved= 6 IEnMin= 6 EnMin= -1339.42022633188     IErMin= 6 ErrMin= 1.57D-03
 ErrMax= 1.57D-03  0.00D+00 EMaxC= 1.00D-01 BMatC= 6.24D-04 BMatP= 7.18D-03
 IDIUse=3 WtCom= 9.84D-01 WtEn= 1.57D-02
 Coeff-Com: -0.260D-02-0.206D-02 0.542D-01 0.134D+00 0.292D+00 0.525D+00
 Coeff-En:   0.000D+00 0.000D+00 0.000D+00 0.000D+00 0.451D-01 0.955D+00
 Coeff:     -0.256D-02-0.203D-02 0.533D-01 0.132D+00 0.288D+00 0.532D+00
 Gap=     0.140 Goal=   None    Shift=    0.000
 RMSDP=9.61D-05 MaxDP=4.55D-03 DE=-6.49D-03 OVMax= 8.03D-03

 Cycle   7  Pass 1  IDiag  1:
 RMSU=  5.29D-05    CP:  9.68D-01  2.74D-01  8.21D-01  6.89D-01  6.37D-01
                    CP:  5.90D-01
 E= -1339.42077030891     Delta-E=       -0.000543977033 Rises=F Damp=F
 DIIS: error= 4.42D-04 at cycle   7 NSaved=   7.
 NSaved= 7 IEnMin= 7 EnMin= -1339.42077030891     IErMin= 7 ErrMin= 4.42D-04
 ErrMax= 4.42D-04  0.00D+00 EMaxC= 1.00D-01 BMatC= 8.45D-05 BMatP= 6.24D-04
 IDIUse=3 WtCom= 9.96D-01 WtEn= 4.42D-03
 Coeff-Com: -0.480D-03-0.204D-02 0.111D-01 0.325D-01 0.105D+00 0.324D+00
 Coeff-Com:  0.529D+00
 Coeff-En:   0.000D+00 0.000D+00 0.000D+00 0.000D+00 0.000D+00 0.106D+00
 Coeff-En:   0.894D+00
 Coeff:     -0.478D-03-0.203D-02 0.110D-01 0.324D-01 0.105D+00 0.323D+00
 Coeff:      0.531D+00
 Gap=     0.140 Goal=   None    Shift=    0.000
 RMSDP=2.76D-05 MaxDP=1.46D-03 DE=-5.44D-04 OVMax= 2.33D-03

 Cycle   8  Pass 1  IDiag  1:
 RMSU=  1.80D-05    CP:  9.68D-01  2.74D-01  8.22D-01  6.89D-01  6.27D-01
                    CP:  6.53D-01  6.75D-01
 E= -1339.42084560566     Delta-E=       -0.000075296745 Rises=F Damp=F
 DIIS: error= 1.07D-04 at cycle   8 NSaved=   8.
 NSaved= 8 IEnMin= 8 EnMin= -1339.42084560566     IErMin= 8 ErrMin= 1.07D-04
 ErrMax= 1.07D-04  0.00D+00 EMaxC= 1.00D-01 BMatC= 7.74D-06 BMatP= 8.45D-05
 IDIUse=3 WtCom= 9.99D-01 WtEn= 1.07D-03
 Coeff-Com:  0.209D-04-0.940D-03 0.272D-02 0.821D-02 0.359D-01 0.141D+00
 Coeff-Com:  0.310D+00 0.504D+00
 Coeff-En:   0.000D+00 0.000D+00 0.000D+00 0.000D+00 0.000D+00 0.000D+00
 Coeff-En:   0.838D-02 0.992D+00
 Coeff:      0.209D-04-0.939D-03 0.272D-02 0.820D-02 0.358D-01 0.141D+00
 Coeff:      0.310D+00 0.504D+00
 Gap=     0.140 Goal=   None    Shift=    0.000
 RMSDP=8.90D-06 MaxDP=5.08D-04 DE=-7.53D-05 OVMax= 6.32D-04

 Cycle   9  Pass 1  IDiag  1:
 RMSU=  6.49D-06    CP:  9.68D-01  2.74D-01  8.21D-01  6.89D-01  6.27D-01
                    CP:  6.58D-01  6.89D-01  6.81D-01
 E= -1339.42085233682     Delta-E=       -0.000006731163 Rises=F Damp=F
 DIIS: error= 4.41D-05 at cycle   9 NSaved=   9.
 NSaved= 9 IEnMin= 9 EnMin= -1339.42085233682     IErMin= 9 ErrMin= 4.41D-05
 ErrMax= 4.41D-05  0.00D+00 EMaxC= 1.00D-01 BMatC= 6.80D-07 BMatP= 7.74D-06
 IDIUse=1 WtCom= 1.00D+00 WtEn= 0.00D+00
 Coeff-Com:  0.156D-03-0.286D-03 0.160D-03 0.228D-04 0.553D-02 0.325D-01
 Coeff-Com:  0.999D-01 0.273D+00 0.589D+00
 Coeff:      0.156D-03-0.286D-03 0.160D-03 0.228D-04 0.553D-02 0.325D-01
 Coeff:      0.999D-01 0.273D+00 0.589D+00
 Gap=     0.140 Goal=   None    Shift=    0.000
 RMSDP=2.89D-06 MaxDP=1.07D-04 DE=-6.73D-06 OVMax= 2.11D-04

 Cycle  10  Pass 1  IDiag  1:
 RMSU=  2.11D-06    CP:  9.68D-01  2.74D-01  8.21D-01  6.89D-01  6.27D-01
                    CP:  6.60D-01  6.95D-01  7.24D-01  7.68D-01
 E= -1339.42085299946     Delta-E=       -0.000000662639 Rises=F Damp=F
 DIIS: error= 9.80D-06 at cycle  10 NSaved=  10.
 NSaved=10 IEnMin=10 EnMin= -1339.42085299946     IErMin=10 ErrMin= 9.80D-06
 ErrMax= 9.80D-06  0.00D+00 EMaxC= 1.00D-01 BMatC= 5.33D-08 BMatP= 6.80D-07
 IDIUse=1 WtCom= 1.00D+00 WtEn= 0.00D+00
 Coeff-Com:  0.745D-04-0.903D-04-0.936D-04-0.649D-03-0.374D-03 0.257D-02
 Coeff-Com:  0.210D-01 0.835D-01 0.284D+00 0.610D+00
 Coeff:      0.745D-04-0.903D-04-0.936D-04-0.649D-03-0.374D-03 0.257D-02
 Coeff:      0.210D-01 0.835D-01 0.284D+00 0.610D+00
 Gap=     0.140 Goal=   None    Shift=    0.000
 RMSDP=9.80D-07 MaxDP=3.97D-05 DE=-6.63D-07 OVMax= 7.42D-05

 Cycle  11  Pass 1  IDiag  1:
 RMSU=  6.07D-07    CP:  9.68D-01  2.74D-01  8.21D-01  6.89D-01  6.27D-01
                    CP:  6.60D-01  6.99D-01  7.37D-01  7.97D-01  6.96D-01
 E= -1339.42085305300     Delta-E=       -0.000000053541 Rises=F Damp=F
 DIIS: error= 2.66D-06 at cycle  11 NSaved=  11.
 NSaved=11 IEnMin=11 EnMin= -1339.42085305300     IErMin=11 ErrMin= 2.66D-06
 ErrMax= 2.66D-06  0.00D+00 EMaxC= 1.00D-01 BMatC= 5.82D-09 BMatP= 5.33D-08
 IDIUse=1 WtCom= 1.00D+00 WtEn= 0.00D+00
 Coeff-Com:  0.228D-04-0.110D-04-0.466D-04-0.327D-03-0.796D-03-0.231D-02
 Coeff-Com:  0.610D-03 0.145D-01 0.835D-01 0.315D+00 0.590D+00
 Coeff:      0.228D-04-0.110D-04-0.466D-04-0.327D-03-0.796D-03-0.231D-02
 Coeff:      0.610D-03 0.145D-01 0.835D-01 0.315D+00 0.590D+00
 Gap=     0.140 Goal=   None    Shift=    0.000
 RMSDP=2.82D-07 MaxDP=1.58D-05 DE=-5.35D-08 OVMax= 1.97D-05

 Cycle  12  Pass 1  IDiag  1:
 RMSU=  1.66D-07    CP:  9.68D-01  2.74D-01  8.21D-01  6.89D-01  6.27D-01
                    CP:  6.60D-01  7.00D-01  7.37D-01  8.05D-01  7.50D-01
                    CP:  7.27D-01
 E= -1339.42085305880     Delta-E=       -0.000000005802 Rises=F Damp=F
 DIIS: error= 8.54D-07 at cycle  12 NSaved=  12.
 NSaved=12 IEnMin=12 EnMin= -1339.42085305880     IErMin=12 ErrMin= 8.54D-07
 ErrMax= 8.54D-07  0.00D+00 EMaxC= 1.00D-01 BMatC= 4.15D-10 BMatP= 5.82D-09
 IDIUse=1 WtCom= 1.00D+00 WtEn= 0.00D+00
 Coeff-Com:  0.442D-05-0.107D-05-0.697D-05-0.883D-04-0.326D-03-0.127D-02
 Coeff-Com: -0.114D-02 0.103D-02 0.191D-01 0.113D+00 0.291D+00 0.579D+00
 Coeff:      0.442D-05-0.107D-05-0.697D-05-0.883D-04-0.326D-03-0.127D-02
 Coeff:     -0.114D-02 0.103D-02 0.191D-01 0.113D+00 0.291D+00 0.579D+00
 Gap=     0.140 Goal=   None    Shift=    0.000
 RMSDP=8.30D-08 MaxDP=4.17D-06 DE=-5.80D-09 OVMax= 9.23D-06

 Cycle  13  Pass 1  IDiag  1:
 RMSU=  5.52D-08    CP:  9.68D-01  2.74D-01  8.21D-01  6.89D-01  6.27D-01
                    CP:  6.60D-01  7.00D-01  7.37D-01  8.08D-01  7.61D-01
                    CP:  7.25D-01  7.00D-01
 E= -1339.42085305921     Delta-E=       -0.000000000404 Rises=F Damp=F
 DIIS: error= 3.09D-07 at cycle  13 NSaved=  13.
 NSaved=13 IEnMin=13 EnMin= -1339.42085305921     IErMin=13 ErrMin= 3.09D-07
 ErrMax= 3.09D-07  0.00D+00 EMaxC= 1.00D-01 BMatC= 3.38D-11 BMatP= 4.15D-10
 IDIUse=1 WtCom= 1.00D+00 WtEn= 0.00D+00
 Coeff-Com:  0.705D-06 0.755D-08-0.877D-06-0.137D-04-0.875D-04-0.406D-03
 Coeff-Com: -0.624D-03-0.986D-03 0.279D-03 0.218D-01 0.729D-01 0.260D+00
 Coeff-Com:  0.648D+00
 Coeff:      0.705D-06 0.755D-08-0.877D-06-0.137D-04-0.875D-04-0.406D-03
 Coeff:     -0.624D-03-0.986D-03 0.279D-03 0.218D-01 0.729D-01 0.260D+00
 Coeff:      0.648D+00
 Gap=     0.140 Goal=   None    Shift=    0.000
 RMSDP=2.46D-08 MaxDP=1.61D-06 DE=-4.04D-10 OVMax= 1.65D-06

 Cycle  14  Pass 1  IDiag  1:
 RMSU=  1.71D-08    CP:  9.68D-01  2.74D-01  8.21D-01  6.89D-01  6.27D-01
                    CP:  6.60D-01  7.00D-01  7.38D-01  8.08D-01  7.62D-01
                    CP:  7.35D-01  7.23D-01  7.98D-01
 E= -1339.42085305922     Delta-E=       -0.000000000011 Rises=F Damp=F
 DIIS: error= 1.07D-07 at cycle  14 NSaved=  14.
 NSaved=14 IEnMin=14 EnMin= -1339.42085305922     IErMin=14 ErrMin= 1.07D-07
 ErrMax= 1.07D-07  0.00D+00 EMaxC= 1.00D-01 BMatC= 7.17D-12 BMatP= 3.38D-11
 IDIUse=1 WtCom= 1.00D+00 WtEn= 0.00D+00
 Coeff-Com: -0.998D-08 0.335D-06 0.384D-07-0.835D-06-0.266D-04-0.143D-03
 Coeff-Com: -0.282D-03-0.652D-03-0.142D-02 0.358D-02 0.179D-01 0.105D+00
 Coeff-Com:  0.390D+00 0.487D+00
 Coeff:     -0.998D-08 0.335D-06 0.384D-07-0.835D-06-0.266D-04-0.143D-03
 Coeff:     -0.282D-03-0.652D-03-0.142D-02 0.358D-02 0.179D-01 0.105D+00
 Coeff:      0.390D+00 0.487D+00
 Gap=     0.140 Goal=   None    Shift=    0.000
 RMSDP=8.49D-09 MaxDP=3.33D-07 DE=-1.09D-11 OVMax= 5.51D-07

 Error on total polarization charges =  0.01675
 SCF Done:  E(RTPSSh) =  -1339.42085306     A.U. after   14 cycles
            NFock= 14  Conv=0.85D-08     -V/T= 2.0706
 KE= 1.251138403598D+03 PE=-6.812171093834D+03 EE= 2.367975165809D+03
 Leave Link  502 at Mon Feb  9 16:27:49 2026, MaxMem= 16106127360 cpu:            1909.6 elap:              35.3
 (Enter /home/software/g16-shuai/g16/l801.exe)
 DoSCS=F DFT=T ScalE2(SS,OS)=  1.000000  1.000000
 ExpMin= 4.90D-02 ExpMax= 1.04D+04 ExpMxC= 1.57D+03 IAcc=3 IRadAn=         5 AccDes= 0.00D+00
 HarFok:  IExCor=  205 AccDes= 0.00D+00 IRadAn=         5 IDoV=-2 UseB2=F ITyADJ=14
 ICtDFT= 12500011 ScaDFX=  1.000000  1.000000  1.000000  1.000000
 Defaulting to unpruned grid for atomic number  78.
 GSVD:  LWork=        -713 too small for GESVD, short by        2990 words or        2990 for optimal perf.
 Largest valence mixing into a core orbital is  9.56D-05
 Largest core mixing into a valence orbital is  6.45D-05
 Range of M.O.s used for correlation:    24   367
 NBasis=   367 NAE=    80 NBE=    80 NFC=    23 NFV=     0
 NROrb=    344 NOA=    57 NOB=    57 NVA=   287 NVB=   287

 **** Warning!!: The largest alpha MO coefficient is  0.12884139D+02

 Leave Link  801 at Mon Feb  9 16:27:49 2026, MaxMem= 16106127360 cpu:               3.5 elap:               0.1
 (Enter /home/software/g16-shuai/g16/l914.exe)
 RHF ground state
 Two-electron integral symmetry not used.
 MDV= 16106127360 DFT=T DoStab=F Mixed=T DoRPA=T DoScal=F NonHer=T
 NEqPCM:  Using non-equilibrium solvation (IEInf=1, Eps=   8.9300, EpsInf=   2.0283)
 Inv3:  Mode=1 IEnd=    19722288.
 Iteration    1 A*A^-1 deviation from unit magnitude is 4.44D-15 for   2563.
 Iteration    1 A*A^-1 deviation from orthogonality  is 2.22D-15 for   2103   1108.
 Iteration    1 A^-1*A deviation from unit magnitude is 4.44D-15 for   2563.
 Iteration    1 A^-1*A deviation from orthogonality  is 1.94D-15 for   2564   2528.
 Making orbital integer symmetry assigments:
    40 initial guesses have been made.
 Convergence on wavefunction:    0.001000000000000
 Davidson Disk Diagonalization:  ConvIn= 1.00D-03 SkipCon=T Conv= 1.00D-03.
 Max sub-space:  2000 roots to seek:    40 dimension of matrix:        32718
 Iteration     1 Dimension    40 NMult     0 NNew     40
 CISAX will form    40 AO SS matrices at one time.
 NMat=    40 NSing=    40 JSym2X= 0.
 FoFJK:  IHMeth= 1 ICntrl=       0 DoSepK=F KAlg= 0 I1Cent=           0 FoldK=F
 IRaf= 850000000 NMat=      80 IRICut=     100 DoRegI=T DoRafI=T ISym2E= 0 IDoP0=3 IntGTp=3.
 Defaulting to unpruned grid for atomic number  78.
 Defaulting to unpruned grid for atomic number  78.
 Defaulting to unpruned grid for atomic number  78.
 Defaulting to unpruned grid for atomic number  78.
 Defaulting to unpruned grid for atomic number  78.
 Defaulting to unpruned grid for atomic number  78.
 Defaulting to unpruned grid for atomic number  78.
 Defaulting to unpruned grid for atomic number  78.
 Defaulting to unpruned grid for atomic number  78.
 Defaulting to unpruned grid for atomic number  78.
 Defaulting to unpruned grid for atomic number  78.
 Defaulting to unpruned grid for atomic number  78.
 Defaulting to unpruned grid for atomic number  78.
 Defaulting to unpruned grid for atomic number  78.
 Defaulting to unpruned grid for atomic number  78.
 Defaulting to unpruned grid for atomic number  78.
 Defaulting to unpruned grid for atomic number  78.
 Defaulting to unpruned grid for atomic number  78.
 Defaulting to unpruned grid for atomic number  78.
 Defaulting to unpruned grid for atomic number  78.
 Defaulting to unpruned grid for atomic number  78.
 Defaulting to unpruned grid for atomic number  78.
 Defaulting to unpruned grid for atomic number  78.
 Defaulting to unpruned grid for atomic number  78.
 Defaulting to unpruned grid for atomic number  78.
 Defaulting to unpruned grid for atomic number  78.
 Defaulting to unpruned grid for atomic number  78.
 Defaulting to unpruned grid for atomic number  78.
 Defaulting to unpruned grid for atomic number  78.
 Defaulting to unpruned grid for atomic number  78.
 Defaulting to unpruned grid for atomic number  78.
 Defaulting to unpruned grid for atomic number  78.
 Defaulting to unpruned grid for atomic number  78.
 Defaulting to unpruned grid for atomic number  78.
 Defaulting to unpruned grid for atomic number  78.
 Defaulting to unpruned grid for atomic number  78.
 Defaulting to unpruned grid for atomic number  78.
 Defaulting to unpruned grid for atomic number  78.
 Defaulting to unpruned grid for atomic number  78.
 Defaulting to unpruned grid for atomic number  78.
 Defaulting to unpruned grid for atomic number  78.
 Defaulting to unpruned grid for atomic number  78.
 Defaulting to unpruned grid for atomic number  78.
 Defaulting to unpruned grid for atomic number  78.
 Defaulting to unpruned grid for atomic number  78.
 Defaulting to unpruned grid for atomic number  78.
 Defaulting to unpruned grid for atomic number  78.
 Defaulting to unpruned grid for atomic number  78.
 Defaulting to unpruned grid for atomic number  78.
 Defaulting to unpruned grid for atomic number  78.
 Defaulting to unpruned grid for atomic number  78.
 Defaulting to unpruned grid for atomic number  78.
 Defaulting to unpruned grid for atomic number  78.
 Defaulting to unpruned grid for atomic number  78.
 Defaulting to unpruned grid for atomic number  78.
 Defaulting to unpruned grid for atomic number  78.
 New state      2 was old state      4
 New state      3 was old state      2
 New state      4 was old state      5
 New state      5 was old state      3
 New state      6 was old state      7
 New state      7 was old state      8
 New state      8 was old state      6
 New state      9 was old state     10
 New state     10 was old state      9
 Excitation Energies [eV] at current iteration:
 Root      1 :     3.761103246180430
 Root      2 :     3.785636580091315
 Root      3 :     3.824841901222443
 Root      4 :     3.948461813840624
 Root      5 :     4.057267149168029
 Root      6 :     4.280195442334647
 Root      7 :     4.309815660838186
 Root      8 :     4.447708390985838
 Root      9 :     4.796790174538945
 Root     10 :     4.863189788333894
 Root     11 :     5.046860502145698
 Root     12 :     5.130529747354116
 Root     13 :     5.209381938489812
 Root     14 :     5.236919447007828
 Root     15 :     5.303714994526699
 Root     16 :     5.328912146245071
 Root     17 :     5.409040238851025
 Root     18 :     5.480697745876485
 Root     19 :     5.485865421713328
 Root     20 :     5.515750126761914
 Root     21 :     5.527113775940352
 Root     22 :     5.571198774935275
 Root     23 :     5.571514644037919
 Root     24 :     5.598124162038310
 Root     25 :     5.646534878432871
 Root     26 :     5.651431944435474
 Root     27 :     5.686754320810936
 Root     28 :     5.690004401519202
 Root     29 :     5.697335437191512
 Root     30 :     5.854114788530961
 Root     31 :     5.981158732771607
 Root     32 :     5.991818862178321
 Root     33 :     6.062576878697326
 Root     34 :     6.109784468829551
 Root     35 :     6.304230065002277
 Root     36 :     6.489643634704358
 Root     37 :     6.688863751808471
 Root     38 :     6.964394606044722
 Root     39 :     7.397930052921258
 Root     40 :     7.426402159730880
 Iteration     2 Dimension    60 NMult    40 NNew     20
 CISAX will form    20 AO SS matrices at one time.
 NMat=    20 NSing=    20 JSym2X= 0.
 Root      1 not converged, maximum delta is    0.053645489829966
 New state      2 was old state      3
 Root      2 not converged, maximum delta is    0.056428685204800
 New state      3 was old state      2
 Root      3 not converged, maximum delta is    0.054890000899118
 Root      4 not converged, maximum delta is    0.027830416469405
 Root      5 not converged, maximum delta is    0.048186973772774
 Root      6 not converged, maximum delta is    0.027389958353665
 Root      7 not converged, maximum delta is    0.085008661558161
 Root      8 not converged, maximum delta is    0.123817122211333
 New state      9 was old state     10
 Root      9 not converged, maximum delta is    0.093364147701653
 New state     10 was old state      9
 Root     10 not converged, maximum delta is    0.077520010753841
 Excitation Energies [eV] at current iteration:
 Root      1 :     3.561993879184528   Change is   -0.199109366995902
 Root      2 :     3.692092241435560   Change is   -0.132749659786884
 Root      3 :     3.764602014367437   Change is   -0.021034565723879
 Root      4 :     3.849228651350457   Change is   -0.099233162490167
 Root      5 :     3.955612678168806   Change is   -0.101654470999223
 Root      6 :     4.272426041082376   Change is   -0.007769401252271
 Root      7 :     4.305935221622579   Change is   -0.003880439215608
 Root      8 :     4.311055978253478   Change is   -0.136652412732360
 Root      9 :     4.554409690560647   Change is   -0.308780097773246
 Root     10 :     4.677408638969843   Change is   -0.119381535569102
 Iteration     3 Dimension    80 NMult    60 NNew     20
 CISAX will form    20 AO SS matrices at one time.
 NMat=    20 NSing=    20 JSym2X= 0.
 Root      1 not converged, maximum delta is    0.015902606624525
 Root      2 not converged, maximum delta is    0.004150278925219
 Root      3 not converged, maximum delta is    0.001473390511238
 Root      4 not converged, maximum delta is    0.004593208935047
 Root      5 not converged, maximum delta is    0.016130677111626
 Root      6 not converged, maximum delta is    0.023711478180881
 New state      7 was old state      8
 Root      7 not converged, maximum delta is    0.145653549587556
 New state      8 was old state      7
 Root      8 not converged, maximum delta is    0.130803662677156
 Root      9 not converged, maximum delta is    0.019406600014994
 Root     10 not converged, maximum delta is    0.035359381342743
 Excitation Energies [eV] at current iteration:
 Root      1 :     3.547227915671610   Change is   -0.014765963512918
 Root      2 :     3.685978808491304   Change is   -0.006113432944256
 Root      3 :     3.763549607822965   Change is   -0.001052406544472
 Root      4 :     3.845191329465386   Change is   -0.004037321885071
 Root      5 :     3.942362185301882   Change is   -0.013250492866924
 Root      6 :     4.272008204962495   Change is   -0.000417836119881
 Root      7 :     4.295286745687349   Change is   -0.015769232566128
 Root      8 :     4.305873455561504   Change is   -0.000061766061074
 Root      9 :     4.541552676635217   Change is   -0.012857013925431
 Root     10 :     4.664937733222581   Change is   -0.012470905747263
 Iteration     4 Dimension   100 NMult    80 NNew     20
 CISAX will form    20 AO SS matrices at one time.
 NMat=    20 NSing=    20 JSym2X= 0.
 Root      1 not converged, maximum delta is    0.003466593162526
 Root      2 not converged, maximum delta is    0.001660153940331
 Root      3 has converged.
 Root      4 not converged, maximum delta is    0.001684908394250
 Root      5 not converged, maximum delta is    0.002491409796796
 Root      6 not converged, maximum delta is    0.003977481097858
 Root      7 not converged, maximum delta is    0.005687932510020
 Root      8 not converged, maximum delta is    0.005117314919134
 Root      9 not converged, maximum delta is    0.002654251693996
 Root     10 not converged, maximum delta is    0.005582455944114
 Excitation Energies [eV] at current iteration:
 Root      1 :     3.545858498528383   Change is   -0.001369417143227
 Root      2 :     3.685474159029262   Change is   -0.000504649462041
 Root      3 :     3.763479072207967   Change is   -0.000070535614998
 Root      4 :     3.844948164888594   Change is   -0.000243164576792
 Root      5 :     3.941525765814949   Change is   -0.000836419486933
 Root      6 :     4.271968571671366   Change is   -0.000039633291130
 Root      7 :     4.293816162865017   Change is   -0.001470582822332
 Root      8 :     4.305846053290385   Change is   -0.000027402271119
 Root      9 :     4.540178532815219   Change is   -0.001374143819998
 Root     10 :     4.663539458503276   Change is   -0.001398274719304
 Iteration     5 Dimension   118 NMult   100 NNew     18
 CISAX will form    18 AO SS matrices at one time.
 NMat=    18 NSing=    18 JSym2X= 0.
 Root      1 has converged.
 Root      2 has converged.
 Root      3 has converged.
 Root      4 has converged.
 Root      5 has converged.
 Root      6 has converged.
 Root      7 has converged.
 Root      8 has converged.
 Root      9 not converged, maximum delta is    0.001468427142247
 Root     10 has converged.
 Excitation Energies [eV] at current iteration:
 Root      1 :     3.545695795095130   Change is   -0.000162703433253
 Root      2 :     3.685441039942438   Change is   -0.000033119086824
 Root      3 :     3.763478842327010   Change is   -0.000000229880957
 Root      4 :     3.844927298482069   Change is   -0.000020866406525
 Root      5 :     3.941453869476694   Change is   -0.000071896338255
 Root      6 :     4.271964562484011   Change is   -0.000004009187355
 Root      7 :     4.293652041555887   Change is   -0.000164121309131
 Root      8 :     4.305843226737039   Change is   -0.000002826553346
 Root      9 :     4.540005484604965   Change is   -0.000173048210254
 Root     10 :     4.663351306112112   Change is   -0.000188152391164
 Iteration     6 Dimension   120 NMult   118 NNew      2
 CISAX will form     2 AO SS matrices at one time.
 NMat=     2 NSing=     2 JSym2X= 0.
 Root      1 has converged.
 Root      2 has converged.
 Root      3 has converged.
 Root      4 has converged.
 Root      5 has converged.
 Root      6 has converged.
 Root      7 has converged.
 Root      8 has converged.
 Root      9 has converged.
 Root     10 has converged.
 Excitation Energies [eV] at current iteration:
 Root      1 :     3.545695732260639   Change is   -0.000000062834491
 Root      2 :     3.685441039895105   Change is   -0.000000000047333
 Root      3 :     3.763478841662094   Change is   -0.000000000664916
 Root      4 :     3.844927298007758   Change is   -0.000000000474311
 Root      5 :     3.941453869414353   Change is   -0.000000000062342
 Root      6 :     4.271964494082805   Change is   -0.000000068401205
 Root      7 :     4.293645378840386   Change is   -0.000006662715500
 Root      8 :     4.305843199475951   Change is   -0.000000027261089
 Root      9 :     4.539991219842181   Change is   -0.000014264762785
 Root     10 :     4.663351306043520   Change is   -0.000000000068592
 Convergence achieved on expansion vectors.
 ***********************************************************************
 Excited states from <AA,BB:AA,BB> singles matrix:
 ***********************************************************************
 
 1PDM for each excited state written to RWF  633
 Ground to excited state transition densities written to RWF  633
 Ground to excited state transition electric dipole moments (Au):
       state          X           Y           Z        Dip. S.      Osc.
         1        -0.0050     -0.6164     -0.0029      0.3799      0.0330
         2        -0.8181      0.0068     -0.0096      0.6694      0.0604
         3        -0.0204      0.0009      0.0005      0.0004      0.0000
         4         0.0059      0.0042     -0.5778      0.3339      0.0315
         5         0.8331     -0.0069      0.0127      0.6943      0.0670
         6        -0.0006     -0.0793     -0.0373      0.0077      0.0008
         7         0.0065      0.8194      0.0046      0.6715      0.0706
         8         0.0041      0.0475      0.0002      0.0023      0.0002
         9        -0.0048     -0.7153     -0.0089      0.5117      0.0569
        10        -1.1813      0.0091     -0.0181      1.3958      0.1595
 Ground to excited state transition velocity dipole moments (Au):
       state          X           Y           Z        Dip. S.      Osc.
         1         0.0005      0.0564      0.0004      0.0032      0.0163
         2         0.0849     -0.0007      0.0010      0.0072      0.0355
         3         0.0022     -0.0001     -0.0000      0.0000      0.0000
         4        -0.0006     -0.0003      0.0611      0.0037      0.0176
         5        -0.1186      0.0010     -0.0018      0.0141      0.0647
         6         0.0001      0.0125      0.0038      0.0002      0.0007
         7        -0.0010     -0.1295     -0.0009      0.0168      0.0709
         8        -0.0007     -0.0075     -0.0000      0.0001      0.0002
         9         0.0006      0.0993      0.0013      0.0099      0.0394
        10         0.1871     -0.0014      0.0029      0.0350      0.1363
 Ground to excited state transition magnetic dipole moments (Au):
       state          X           Y           Z
         1        -0.0017      0.0007      0.0520
         2        -0.0256     -0.0272      1.5213
         3         0.0015      0.3617      0.0463
         4         0.2115     -0.0579      0.0101
         5        -0.0123     -0.0047      0.7657
         6         0.0998     -0.0043      0.0145
         7         0.0070     -0.0060     -0.1196
         8         0.0013      0.1312      0.0050
         9         0.0019     -0.0009      0.0931
        10         0.0126      0.0016     -0.8014
 Ground to excited state transition velocity quadrupole moments (Au):
       state          XX          YY          ZZ          XY          XZ          YZ
         1         0.3094      0.2464     -0.0147      0.0517      0.0052      0.0018
         2         0.1567      0.0003      0.0000     -0.0084      0.0009      0.0001
         3         0.0056      0.0001     -0.0027     -0.0006     -0.0847      0.0006
         4        -0.0003      0.0051     -0.0043      0.0006      0.0561     -0.0509
         5        -0.2234      0.0043     -0.0000     -0.2609     -0.0016     -0.0043
         6        -0.0367      0.0835     -0.0015      0.0131      0.0030     -0.0048
         7         0.4050     -0.8797      0.0128     -0.1303      0.0059     -0.0076
         8         0.0236     -0.0517      0.0002     -0.0089     -0.0170     -0.0004
         9         0.4957     -0.0206      0.0109      0.0876      0.0085     -0.0027
        10         0.3488     -0.0023     -0.0001      0.1446     -0.0005      0.0026
 <0|del|b> * <b|rxdel|0> + <0|del|b> * <b|delr+rdel|0>
 Rotatory Strengths (R) in cgs (10**-40 erg-esu-cm/Gauss)
       state          XX          YY          ZZ    R(velocity)    E-M Angle
         1        -0.5926      0.0004      0.8929      0.1002       90.00
         2         3.8943     -1.7512     -5.6466     -1.1678       90.30
         3        -0.0928      0.0067     -0.0500     -0.0453       90.00
         4         1.7312      1.2018     -0.4111      0.8407       87.85
         5        -2.2586      0.2143      2.3025      0.0861       90.00
         6         0.0328      0.0377     -0.0094      0.0204       90.00
         7         4.0015     -0.0216     -0.0144      1.3218       86.74
         8        -2.4951     -0.0029     -1.9263     -1.4748       90.00
         9        -1.4861      0.0136      1.5992      0.0422       90.00
        10        -3.9144      0.2673      3.8601      0.0710       90.00
 1/2[<0|r|b>*<b|rxdel|0> + (<0|rxdel|b>*<b|r|0>)*]
 Rotatory Strengths (R) in cgs (10**-40 erg-esu-cm/Gauss)
       state          XX          YY          ZZ     R(length)
         1        -0.0058      0.2858      0.1078      0.1293
         2       -14.7886      0.1301     10.2748     -1.4612
         3         0.0210     -0.2419     -0.0149     -0.0786
         4        -0.8890      0.1726      4.1260      1.1365
         5         7.2365     -0.0227     -6.8988      0.1050
         6         0.0418     -0.2432      0.3819      0.0602
         7        -0.0326      3.4823      0.3922      1.2806
         8        -0.0039     -4.4102     -0.0005     -1.4715
         9         0.0063     -0.4578      0.5886      0.0457
        10        10.5572     -0.0103    -10.2766      0.0901
  1/2[<0|del|b>*<b|r|0> + (<0|r|b>*<b|del|0>)*] (Au)
       state          X           Y           Z        Dip. S.   Osc.(frdel)
         1        -0.0000     -0.0348     -0.0000      0.0348      0.0232
         2        -0.0695     -0.0000     -0.0000      0.0695      0.0463
         3        -0.0000     -0.0000     -0.0000      0.0000      0.0000
         4        -0.0000     -0.0000     -0.0353      0.0353      0.0236
         5        -0.0988     -0.0000     -0.0000      0.0988      0.0659
         6        -0.0000     -0.0010     -0.0001      0.0011      0.0008
         7        -0.0000     -0.1061     -0.0000      0.1062      0.0708
         8        -0.0000     -0.0004     -0.0000      0.0004      0.0002
         9        -0.0000     -0.0710     -0.0000      0.0711      0.0474
        10        -0.2211     -0.0000     -0.0001      0.2211      0.1474

 Excitation energies and oscillator strengths:
 
 Excited state symmetry could not be determined.
 Excited State   1:      Singlet-?Sym    3.5457 eV  349.68 nm  f=0.0330  <S**2>=0.000
      80 -> 81         0.69391
 This state for optimization and/or second-order correction.
 Total Energy, E(TD-HF/TD-DFT) =  -1339.29055114    
 Copying the excited state density for this state as the 1-particle RhoCI density.
 
 Excited state symmetry could not be determined.
 Excited State   2:      Singlet-?Sym    3.6854 eV  336.42 nm  f=0.0604  <S**2>=0.000
      79 -> 81         0.69981
 
 Excited state symmetry could not be determined.
 Excited State   3:      Singlet-?Sym    3.7635 eV  329.44 nm  f=0.0000  <S**2>=0.000
      78 -> 81         0.70522
 
 Excited state symmetry could not be determined.
 Excited State   4:      Singlet-?Sym    3.8449 eV  322.46 nm  f=0.0315  <S**2>=0.000
      77 -> 81         0.70581
 
 Excited state symmetry could not be determined.
 Excited State   5:      Singlet-?Sym    3.9415 eV  314.56 nm  f=0.0670  <S**2>=0.000
      75 -> 81         0.16288
      80 -> 82         0.67610
 
 Excited state symmetry could not be determined.
 Excited State   6:      Singlet-?Sym    4.2720 eV  290.23 nm  f=0.0008  <S**2>=0.000
      78 -> 82         0.70102
 
 Excited state symmetry could not be determined.
 Excited State   7:      Singlet-?Sym    4.2936 eV  288.76 nm  f=0.0706  <S**2>=0.000
      75 -> 82         0.13172
      76 -> 81         0.12337
      79 -> 82         0.65730
      80 -> 83         0.12580
 
 Excited state symmetry could not be determined.
 Excited State   8:      Singlet-?Sym    4.3058 eV  287.94 nm  f=0.0002  <S**2>=0.000
      77 -> 82         0.70413
 
 Excited state symmetry could not be determined.
 Excited State   9:      Singlet-?Sym    4.5400 eV  273.09 nm  f=0.0569  <S**2>=0.000
      76 -> 81         0.68389
      79 -> 82        -0.11968
 
 Excited state symmetry could not be determined.
 Excited State  10:      Singlet-?Sym    4.6634 eV  265.87 nm  f=0.1595  <S**2>=0.000
      75 -> 81         0.61741
      76 -> 82        -0.30013
      80 -> 82        -0.12088
 SavETr:  write IOETrn=   770 NScale= 10 NData=  16 NLR=1 NState=   10 LETran=     190.
 Leave Link  914 at Mon Feb  9 16:29:49 2026, MaxMem= 16106127360 cpu:            6578.0 elap:             119.3
 (Enter /home/software/g16-shuai/g16/l601.exe)
 Copying SCF densities to generalized density rwf, IOpCl= 0 IROHF=0.

 **********************************************************************

            Population analysis using the Ground to state     1 trans dens.

 **********************************************************************

 Alpha  occ. eigenvalues -- -101.27751 -14.33588 -14.33586 -14.33464 -14.33463
 Alpha  occ. eigenvalues --  -10.19023 -10.19022 -10.17501 -10.17500 -10.17318
 Alpha  occ. eigenvalues --  -10.17313 -10.17187 -10.17186 -10.16578 -10.16573
 Alpha  occ. eigenvalues --  -10.13880 -10.13877 -10.13586 -10.12895  -9.30033
 Alpha  occ. eigenvalues --   -7.05193  -7.04816  -7.04803  -3.87482  -2.13991
 Alpha  occ. eigenvalues --   -2.13893  -2.10668  -1.02019  -1.01919  -0.91845
 Alpha  occ. eigenvalues --   -0.91298  -0.82834  -0.77272  -0.76413  -0.72786
 Alpha  occ. eigenvalues --   -0.71535  -0.70719  -0.70280  -0.69182  -0.64236
 Alpha  occ. eigenvalues --   -0.61253  -0.60847  -0.58081  -0.56111  -0.54931
 Alpha  occ. eigenvalues --   -0.54683  -0.50329  -0.47796  -0.47029  -0.46875
 Alpha  occ. eigenvalues --   -0.46620  -0.46363  -0.44280  -0.43988  -0.43611
 Alpha  occ. eigenvalues --   -0.42539  -0.42225  -0.41261  -0.40757  -0.40339
 Alpha  occ. eigenvalues --   -0.39184  -0.38463  -0.37878  -0.36351  -0.36076
 Alpha  occ. eigenvalues --   -0.34769  -0.32292  -0.30922  -0.29885  -0.28679
 Alpha  occ. eigenvalues --   -0.28273  -0.27543  -0.26402  -0.25797  -0.23830
 Alpha  occ. eigenvalues --   -0.23264  -0.21729  -0.21286  -0.20698  -0.19771
 Alpha virt. eigenvalues --   -0.05786  -0.04291   0.00148   0.00440   0.00800
 Alpha virt. eigenvalues --    0.01179   0.04534   0.06287   0.06862   0.07141
 Alpha virt. eigenvalues --    0.07150   0.08352   0.08433   0.09897   0.10356
 Alpha virt. eigenvalues --    0.10501   0.11860   0.12003   0.13479   0.14398
 Alpha virt. eigenvalues --    0.14442   0.14843   0.14974   0.15532   0.15681
 Alpha virt. eigenvalues --    0.16634   0.17353   0.17985   0.19236   0.19845
 Alpha virt. eigenvalues --    0.20250   0.22622   0.23311   0.24245   0.26091
 Alpha virt. eigenvalues --    0.27188   0.28380   0.29136   0.30693   0.32295
 Alpha virt. eigenvalues --    0.33008   0.33761   0.35507   0.36104   0.36783
 Alpha virt. eigenvalues --    0.37607   0.38131   0.38343   0.39464   0.39723
 Alpha virt. eigenvalues --    0.41757   0.42665   0.43449   0.44012   0.44504
 Alpha virt. eigenvalues --    0.45191   0.45935   0.46449   0.46482   0.46836
 Alpha virt. eigenvalues --    0.48471   0.49518   0.49800   0.50231   0.50539
 Alpha virt. eigenvalues --    0.51305   0.53433   0.54032   0.54138   0.54670
 Alpha virt. eigenvalues --    0.55872   0.56440   0.57103   0.58729   0.59828
 Alpha virt. eigenvalues --    0.60284   0.61271   0.62937   0.63158   0.63230
 Alpha virt. eigenvalues --    0.63995   0.65045   0.65303   0.65311   0.65368
 Alpha virt. eigenvalues --    0.65703   0.66113   0.66897   0.67420   0.68308
 Alpha virt. eigenvalues --    0.68430   0.68521   0.69232   0.69313   0.70541
 Alpha virt. eigenvalues --    0.71130   0.71726   0.73084   0.73600   0.74494
 Alpha virt. eigenvalues --    0.75181   0.77697   0.77938   0.79092   0.79460
 Alpha virt. eigenvalues --    0.82181   0.82813   0.83763   0.84971   0.85374
 Alpha virt. eigenvalues --    0.85776   0.86682   0.88426   0.89562   0.90146
 Alpha virt. eigenvalues --    0.90535   0.91177   0.91769   0.92301   0.94984
 Alpha virt. eigenvalues --    0.97262   0.99908   1.01245   1.01903   1.04070
 Alpha virt. eigenvalues --    1.04878   1.04948   1.08114   1.10535   1.13312
 Alpha virt. eigenvalues --    1.15763   1.16040   1.16704   1.18302   1.19052
 Alpha virt. eigenvalues --    1.19374   1.20549   1.20841   1.21467   1.21713
 Alpha virt. eigenvalues --    1.22629   1.23598   1.24099   1.25845   1.30128
 Alpha virt. eigenvalues --    1.31066   1.33363   1.33986   1.34733   1.34811
 Alpha virt. eigenvalues --    1.35028   1.35893   1.36894   1.37800   1.42697
 Alpha virt. eigenvalues --    1.42762   1.43070   1.43187   1.44829   1.50455
 Alpha virt. eigenvalues --    1.52932   1.52951   1.53292   1.56650   1.56940
 Alpha virt. eigenvalues --    1.57892   1.57924   1.58562   1.61059   1.62867
 Alpha virt. eigenvalues --    1.63420   1.63962   1.66408   1.67221   1.67260
 Alpha virt. eigenvalues --    1.69646   1.70682   1.71502   1.71578   1.71992
 Alpha virt. eigenvalues --    1.74620   1.76751   1.77005   1.77623   1.78267
 Alpha virt. eigenvalues --    1.79182   1.79672   1.80014   1.80379   1.80964
 Alpha virt. eigenvalues --    1.81001   1.81719   1.82480   1.83603   1.87370
 Alpha virt. eigenvalues --    1.88382   1.89424   1.89906   1.90142   1.90757
 Alpha virt. eigenvalues --    1.93809   1.95664   1.95689   1.96075   1.97843
 Alpha virt. eigenvalues --    1.99814   2.02505   2.02507   2.03296   2.04604
 Alpha virt. eigenvalues --    2.04638   2.04833   2.05597   2.08092   2.09843
 Alpha virt. eigenvalues --    2.11446   2.11631   2.15086   2.15557   2.15836
 Alpha virt. eigenvalues --    2.17357   2.19236   2.19750   2.21829   2.23528
 Alpha virt. eigenvalues --    2.24683   2.28261   2.28700   2.29437   2.30396
 Alpha virt. eigenvalues --    2.30492   2.31415   2.31911   2.33340   2.36488
 Alpha virt. eigenvalues --    2.38934   2.39905   2.43553   2.44132   2.44344
 Alpha virt. eigenvalues --    2.45022   2.45407   2.48319   2.48574   2.55600
 Alpha virt. eigenvalues --    2.57022   2.60498   2.60656   2.62079   2.62180
 Alpha virt. eigenvalues --    2.65326   2.67387   2.71794   2.71846   2.72256
 Alpha virt. eigenvalues --    2.73122   2.75739   2.76209   2.76291   2.77347
 Alpha virt. eigenvalues --    2.78385   2.80812   2.80865   2.81850   2.83037
 Alpha virt. eigenvalues --    2.87553   2.88939   2.94251   2.94440   2.96535
 Alpha virt. eigenvalues --    2.97010   2.97925   2.98083   2.99814   3.00745
 Alpha virt. eigenvalues --    3.06017   3.16704   3.23125   3.25276   3.33326
 Alpha virt. eigenvalues --    3.37675   3.40488   3.48360   3.56163   3.65937
 Alpha virt. eigenvalues --   51.31585 282.81263
          Condensed to atoms (all electrons):
               1          2          3          4          5          6
     1  Pt  -0.145500   0.048096  -0.011805  -0.011799   0.000447   0.000448
     2  C    0.048096  -0.078641  -0.034858  -0.034906   0.002147   0.002151
     3  C   -0.011805  -0.034858   0.087796   0.014914   0.008577  -0.000807
     4  C   -0.011799  -0.034906   0.014914   0.087953  -0.000822   0.008501
     5  C    0.000447   0.002147   0.008577  -0.000822  -0.045917   0.001167
     6  C    0.000448   0.002151  -0.000807   0.008501   0.001167  -0.045913
     7  C    0.002648   0.004566  -0.008635  -0.008620   0.005281   0.005320
     8  H   -0.000029   0.000124  -0.002646   0.000053   0.000427   0.000141
     9  H   -0.000029   0.000124   0.000053  -0.002658   0.000141   0.000436
    10  H   -0.000004   0.000074   0.000371   0.000372  -0.001553  -0.001549
    11  C    0.007083  -0.004162   0.000148  -0.017774   0.000014  -0.000108
    12  C   -0.000758  -0.000055  -0.000000   0.000239   0.000000   0.000021
    13  H   -0.000004  -0.000004  -0.000000   0.000003   0.000000   0.000000
    14  C    0.007059  -0.004178  -0.017763   0.000147  -0.000108   0.000014
    15  C   -0.000758  -0.000055   0.000238  -0.000000   0.000021   0.000000
    16  H   -0.000004  -0.000004   0.000003  -0.000000   0.000000   0.000000
    17  Cl   0.036548   0.000145   0.000003   0.000003   0.000000   0.000000
    18  C    0.000869   0.000052   0.000001  -0.000036  -0.000000  -0.000000
    19  H    0.000064  -0.000002  -0.000000  -0.000003   0.000000   0.000000
    20  H    0.000089  -0.000057  -0.000004   0.000037  -0.000000   0.000000
    21  H    0.000074  -0.000002  -0.000000  -0.000003   0.000000   0.000000
    22  C    0.000876   0.000051  -0.000036   0.000001  -0.000000  -0.000000
    23  H    0.000081  -0.000057   0.000037  -0.000004   0.000000  -0.000000
    24  H    0.000068  -0.000002  -0.000003  -0.000000   0.000000   0.000000
    25  H    0.000070  -0.000002  -0.000003  -0.000000   0.000000   0.000000
    26  N    0.001749   0.009992   0.000465   0.013614  -0.000060   0.000924
    27  N   -0.001977  -0.000697  -0.000009   0.001269   0.000000  -0.000002
    28  N   -0.001981  -0.000698   0.001270  -0.000009  -0.000001   0.000000
    29  N    0.001758   0.010008   0.013603   0.000466   0.000925  -0.000059
    30  C    0.000942   0.000089  -0.004239   0.000007  -0.000386   0.000004
    31  C    0.000943   0.000090   0.000007  -0.004242   0.000004  -0.000384
    32  H    0.000026   0.000010  -0.000067  -0.000000   0.000069   0.000000
    33  H    0.000026   0.000010  -0.000000  -0.000066   0.000000   0.000069
               7          8          9         10         11         12
     1  Pt   0.002648  -0.000029  -0.000029  -0.000004   0.007083  -0.000758
     2  C    0.004566   0.000124   0.000124   0.000074  -0.004162  -0.000055
     3  C   -0.008635  -0.002646   0.000053   0.000371   0.000148  -0.000000
     4  C   -0.008620   0.000053  -0.002658   0.000372  -0.017774   0.000239
     5  C    0.005281   0.000427   0.000141  -0.001553   0.000014   0.000000
     6  C    0.005320   0.000141   0.000436  -0.001549  -0.000108   0.000021
     7  C    0.055673   0.001415   0.001420   0.000582   0.000092  -0.000000
     8  H    0.001415   0.002683  -0.000010  -0.000474   0.000000  -0.000000
     9  H    0.001420  -0.000010   0.002679  -0.000475   0.000052   0.000008
    10  H    0.000582  -0.000474  -0.000475   0.016262   0.000001  -0.000000
    11  C    0.000092   0.000000   0.000052   0.000001   0.059674  -0.005658
    12  C   -0.000000  -0.000000   0.000008  -0.000000  -0.005658  -0.007745
    13  H    0.000000   0.000000   0.000000   0.000000   0.000234   0.000106
    14  C    0.000092   0.000052   0.000000   0.000001  -0.001254  -0.000001
    15  C   -0.000000   0.000008  -0.000000  -0.000000  -0.000001  -0.000000
    16  H    0.000000   0.000000   0.000000   0.000000   0.000000  -0.000000
    17  Cl  -0.000000  -0.000000  -0.000000  -0.000000   0.001836   0.000004
    18  C    0.000000  -0.000000  -0.000000  -0.000000  -0.001239  -0.000220
    19  H    0.000000  -0.000000   0.000000  -0.000000   0.000324  -0.000317
    20  H   -0.000000  -0.000000   0.000000   0.000000   0.001422   0.000530
    21  H    0.000000  -0.000000   0.000000  -0.000000   0.000347  -0.000320
    22  C    0.000000  -0.000000  -0.000000  -0.000000   0.000003   0.000000
    23  H   -0.000000   0.000000  -0.000000   0.000000  -0.000012  -0.000000
    24  H    0.000000   0.000000  -0.000000  -0.000000   0.000000  -0.000000
    25  H    0.000000   0.000000  -0.000000  -0.000000   0.000000  -0.000000
    26  N   -0.000237  -0.000001  -0.000194  -0.000012   0.014111   0.002329
    27  N   -0.000001   0.000000   0.000002  -0.000000  -0.012445   0.018489
    28  N   -0.000001   0.000002   0.000000  -0.000000  -0.000009  -0.000000
    29  N   -0.000238  -0.000194  -0.000001  -0.000012   0.000089   0.000000
    30  C    0.000070  -0.000039   0.000000  -0.000001  -0.000002  -0.000000
    31  C    0.000069   0.000000  -0.000039  -0.000001   0.003492  -0.009447
    32  H    0.000001  -0.000020  -0.000000   0.000000   0.000000   0.000000
    33  H    0.000001  -0.000000  -0.000020   0.000000   0.000130  -0.000711
              13         14         15         16         17         18
     1  Pt  -0.000004   0.007059  -0.000758  -0.000004   0.036548   0.000869
     2  C   -0.000004  -0.004178  -0.000055  -0.000004   0.000145   0.000052
     3  C   -0.000000  -0.017763   0.000238   0.000003   0.000003   0.000001
     4  C    0.000003   0.000147  -0.000000  -0.000000   0.000003  -0.000036
     5  C    0.000000  -0.000108   0.000021   0.000000   0.000000  -0.000000
     6  C    0.000000   0.000014   0.000000   0.000000   0.000000  -0.000000
     7  C    0.000000   0.000092  -0.000000   0.000000  -0.000000   0.000000
     8  H    0.000000   0.000052   0.000008   0.000000  -0.000000  -0.000000
     9  H    0.000000   0.000000  -0.000000   0.000000  -0.000000  -0.000000
    10  H    0.000000   0.000001  -0.000000   0.000000  -0.000000  -0.000000
    11  C    0.000234  -0.001254  -0.000001   0.000000   0.001836  -0.001239
    12  C    0.000106  -0.000001  -0.000000  -0.000000   0.000004  -0.000220
    13  H    0.003817   0.000000  -0.000000  -0.000000  -0.000000  -0.000151
    14  C    0.000000   0.059690  -0.005649   0.000234   0.001836   0.000003
    15  C   -0.000000  -0.005649  -0.007772   0.000106   0.000004   0.000000
    16  H   -0.000000   0.000234   0.000106   0.003812  -0.000000  -0.000000
    17  Cl  -0.000000   0.001836   0.000004  -0.000000  -0.090738   0.003301
    18  C   -0.000151   0.000003   0.000000  -0.000000   0.003301  -0.028721
    19  H    0.000019   0.000000  -0.000000   0.000000   0.000024   0.001522
    20  H   -0.000041  -0.000012  -0.000000   0.000000  -0.010776   0.014438
    21  H    0.000017   0.000000  -0.000000   0.000000   0.000027   0.001446
    22  C   -0.000000  -0.001239  -0.000221  -0.000150   0.003275   0.000001
    23  H    0.000000   0.001420   0.000529  -0.000041  -0.010704  -0.000010
    24  H    0.000000   0.000335  -0.000319   0.000019   0.000025  -0.000000
    25  H    0.000000   0.000336  -0.000317   0.000018   0.000025  -0.000000
    26  N    0.000041   0.000089   0.000000  -0.000000  -0.000028  -0.000084
    27  N   -0.000237  -0.000009  -0.000000   0.000000  -0.000077   0.006243
    28  N    0.000000  -0.012425   0.018484  -0.000237  -0.000077  -0.000000
    29  N   -0.000000   0.014094   0.002333   0.000041  -0.000028  -0.000000
    30  C    0.000000   0.003490  -0.009437  -0.000888   0.000002   0.000000
    31  C   -0.000890  -0.000002  -0.000000   0.000000   0.000002   0.000224
    32  H   -0.000000   0.000130  -0.000710   0.000013   0.000000   0.000000
    33  H    0.000013   0.000000   0.000000  -0.000000   0.000000  -0.000007
              19         20         21         22         23         24
     1  Pt   0.000064   0.000089   0.000074   0.000876   0.000081   0.000068
     2  C   -0.000002  -0.000057  -0.000002   0.000051  -0.000057  -0.000002
     3  C   -0.000000  -0.000004  -0.000000  -0.000036   0.000037  -0.000003
     4  C   -0.000003   0.000037  -0.000003   0.000001  -0.000004  -0.000000
     5  C    0.000000  -0.000000   0.000000  -0.000000   0.000000   0.000000
     6  C    0.000000   0.000000   0.000000  -0.000000  -0.000000   0.000000
     7  C    0.000000  -0.000000   0.000000   0.000000  -0.000000   0.000000
     8  H   -0.000000  -0.000000  -0.000000  -0.000000   0.000000   0.000000
     9  H    0.000000   0.000000   0.000000  -0.000000  -0.000000  -0.000000
    10  H   -0.000000   0.000000  -0.000000  -0.000000   0.000000  -0.000000
    11  C    0.000324   0.001422   0.000347   0.000003  -0.000012   0.000000
    12  C   -0.000317   0.000530  -0.000320   0.000000  -0.000000  -0.000000
    13  H    0.000019  -0.000041   0.000017  -0.000000   0.000000   0.000000
    14  C    0.000000  -0.000012   0.000000  -0.001239   0.001420   0.000335
    15  C   -0.000000  -0.000000  -0.000000  -0.000221   0.000529  -0.000319
    16  H    0.000000   0.000000   0.000000  -0.000150  -0.000041   0.000019
    17  Cl   0.000024  -0.010776   0.000027   0.003275  -0.010704   0.000025
    18  C    0.001522   0.014438   0.001446   0.000001  -0.000010  -0.000000
    19  H    0.005440  -0.001670  -0.001111  -0.000000   0.000000   0.000000
    20  H   -0.001670   0.005594  -0.001675  -0.000010   0.000077   0.000000
    21  H   -0.001111  -0.001675   0.005531  -0.000000   0.000000  -0.000000
    22  C   -0.000000  -0.000010  -0.000000  -0.028613   0.014355   0.001502
    23  H    0.000000   0.000077   0.000000   0.014355   0.005650  -0.001676
    24  H    0.000000   0.000000  -0.000000   0.001502  -0.001676   0.005480
    25  H   -0.000000   0.000000   0.000000   0.001455  -0.001659  -0.001114
    26  N    0.000013   0.000023   0.000012  -0.000000   0.000000   0.000000
    27  N   -0.001411  -0.002974  -0.001427  -0.000000   0.000000  -0.000000
    28  N   -0.000000   0.000000  -0.000000   0.006243  -0.002969  -0.001424
    29  N    0.000000   0.000000   0.000000  -0.000083   0.000023   0.000013
    30  C    0.000000  -0.000000   0.000000   0.000224  -0.000014   0.000026
    31  C    0.000024  -0.000014   0.000027   0.000000  -0.000000   0.000000
    32  H    0.000000  -0.000000  -0.000000  -0.000007   0.000001   0.000000
    33  H    0.000000   0.000001   0.000000   0.000000  -0.000000   0.000000
              25         26         27         28         29         30
     1  Pt   0.000070   0.001749  -0.001977  -0.001981   0.001758   0.000942
     2  C   -0.000002   0.009992  -0.000697  -0.000698   0.010008   0.000089
     3  C   -0.000003   0.000465  -0.000009   0.001270   0.013603  -0.004239
     4  C   -0.000000   0.013614   0.001269  -0.000009   0.000466   0.000007
     5  C    0.000000  -0.000060   0.000000  -0.000001   0.000925  -0.000386
     6  C    0.000000   0.000924  -0.000002   0.000000  -0.000059   0.000004
     7  C    0.000000  -0.000237  -0.000001  -0.000001  -0.000238   0.000070
     8  H    0.000000  -0.000001   0.000000   0.000002  -0.000194  -0.000039
     9  H   -0.000000  -0.000194   0.000002   0.000000  -0.000001   0.000000
    10  H   -0.000000  -0.000012  -0.000000  -0.000000  -0.000012  -0.000001
    11  C    0.000000   0.014111  -0.012445  -0.000009   0.000089  -0.000002
    12  C   -0.000000   0.002329   0.018489  -0.000000   0.000000  -0.000000
    13  H    0.000000   0.000041  -0.000237   0.000000  -0.000000   0.000000
    14  C    0.000336   0.000089  -0.000009  -0.012425   0.014094   0.003490
    15  C   -0.000317   0.000000  -0.000000   0.018484   0.002333  -0.009437
    16  H    0.000018  -0.000000   0.000000  -0.000237   0.000041  -0.000888
    17  Cl   0.000025  -0.000028  -0.000077  -0.000077  -0.000028   0.000002
    18  C   -0.000000  -0.000084   0.006243  -0.000000  -0.000000   0.000000
    19  H   -0.000000   0.000013  -0.001411  -0.000000   0.000000   0.000000
    20  H    0.000000   0.000023  -0.002974   0.000000   0.000000  -0.000000
    21  H    0.000000   0.000012  -0.001427  -0.000000   0.000000   0.000000
    22  C    0.001455  -0.000000  -0.000000   0.006243  -0.000083   0.000224
    23  H   -0.001659   0.000000   0.000000  -0.002969   0.000023  -0.000014
    24  H   -0.001114   0.000000  -0.000000  -0.001424   0.000013   0.000026
    25  H    0.005510   0.000000  -0.000000  -0.001418   0.000012   0.000026
    26  N    0.000000  -0.071093   0.000722   0.000000  -0.000016   0.000000
    27  N   -0.000000   0.000722   0.005938   0.000000   0.000000  -0.000000
    28  N   -0.001418   0.000000   0.000000   0.005940   0.000726  -0.003286
    29  N    0.000012  -0.000016   0.000000   0.000726  -0.071077   0.007141
    30  C    0.000026   0.000000  -0.000000  -0.003286   0.007141   0.012613
    31  C    0.000000   0.007154  -0.003282  -0.000000   0.000000   0.000000
    32  H    0.000000  -0.000000  -0.000000   0.000007  -0.000249   0.000540
    33  H   -0.000000  -0.000249   0.000007  -0.000000  -0.000000   0.000000
              31         32         33
     1  Pt   0.000943   0.000026   0.000026
     2  C    0.000090   0.000010   0.000010
     3  C    0.000007  -0.000067  -0.000000
     4  C   -0.004242  -0.000000  -0.000066
     5  C    0.000004   0.000069   0.000000
     6  C   -0.000384   0.000000   0.000069
     7  C    0.000069   0.000001   0.000001
     8  H    0.000000  -0.000020  -0.000000
     9  H   -0.000039  -0.000000  -0.000020
    10  H   -0.000001   0.000000   0.000000
    11  C    0.003492   0.000000   0.000130
    12  C   -0.009447   0.000000  -0.000711
    13  H   -0.000890  -0.000000   0.000013
    14  C   -0.000002   0.000130   0.000000
    15  C   -0.000000  -0.000710   0.000000
    16  H    0.000000   0.000013  -0.000000
    17  Cl   0.000002   0.000000   0.000000
    18  C    0.000224   0.000000  -0.000007
    19  H    0.000024   0.000000   0.000000
    20  H   -0.000014  -0.000000   0.000001
    21  H    0.000027  -0.000000   0.000000
    22  C    0.000000  -0.000007   0.000000
    23  H   -0.000000   0.000001  -0.000000
    24  H    0.000000   0.000000   0.000000
    25  H    0.000000   0.000000  -0.000000
    26  N    0.007154  -0.000000  -0.000249
    27  N   -0.003282  -0.000000   0.000007
    28  N   -0.000000   0.000007  -0.000000
    29  N    0.000000  -0.000249  -0.000000
    30  C    0.000000   0.000540   0.000000
    31  C    0.012605   0.000000   0.000542
    32  H    0.000000   0.001996  -0.000000
    33  H    0.000542  -0.000000   0.001999
 Mulliken charges:
               1
     1  Pt  18.064683
     2  C    6.080651
     3  C    5.953390
     4  C    5.953365
     5  C    6.029626
     6  C    6.029627
     7  C    5.940502
     8  H    0.998506
     9  H    0.998510
    10  H    0.986416
    11  C    5.953614
    12  C    6.003507
    13  H    0.997075
    14  C    5.953618
    15  C    6.003517
    16  H    0.997077
    17  Cl  17.065368
    18  C    6.002369
    19  H    0.997082
    20  H    0.995020
    21  H    0.997056
    22  C    6.002374
    23  H    0.994971
    24  H    0.997071
    25  H    0.997060
    26  N    7.020732
    27  N    6.991877
    28  N    6.991865
    29  N    7.020723
    30  C    5.993119
    31  C    5.993116
    32  H    0.998258
    33  H    0.998255
 Sum of Mulliken charges = 160.00000
 Mulliken charges with hydrogens summed into heavy atoms:
               1
     1  Pt  18.064683
     2  C    6.080651
     3  C    5.953390
     4  C    5.953365
     5  C    7.028132
     6  C    7.028136
     7  C    6.926919
    11  C    5.953614
    12  C    7.000582
    14  C    5.953618
    15  C    7.000595
    17  Cl  17.065368
    18  C    8.991528
    22  C    8.991475
    26  N    7.020732
    27  N    6.991877
    28  N    6.991865
    29  N    7.020723
    30  C    6.991377
    31  C    6.991371
 Electronic spatial extent (au):  <R**2>=              5.0111
 Charge=             -0.0000 electrons
 Dipole moment (field-independent basis, Debye):
    X=             -0.0178    Y=             -2.2155    Z=             -0.0105  Tot=              2.2156
 Quadrupole moment (field-independent basis, Debye-Ang):
   XX=             -4.5771   YY=             -2.0220   ZZ=             -0.1411
   XY=             -1.0658   XZ=             -0.0717   YZ=             -0.0126
 Traceless Quadrupole moment (field-independent basis, Debye-Ang):
   XX=             -2.3303   YY=              0.2247   ZZ=              2.1057
   XY=             -1.0658   XZ=             -0.0717   YZ=             -0.0126
 Octapole moment (field-independent basis, Debye-Ang**2):
  XXX=             -6.6296  YYY=            -37.9561  ZZZ=             -0.0151  XYY=             -1.3459
  XXY=              2.6494  XXZ=              0.0137  XZZ=             -0.0825  YZZ=             -1.9627
  YYZ=             -0.2916  XYZ=              0.0692
 Hexadecapole moment (field-independent basis, Debye-Ang**3):
 XXXX=            -58.5946 YYYY=           -103.7180 ZZZZ=             -1.1762 XXXY=              4.5590
 XXXZ=             -0.4966 YYYX=            -19.1945 YYYZ=             -0.7839 ZZZX=             -0.2054
 ZZZY=             -0.0533 XXYY=            -11.1317 XXZZ=             -4.7941 YYZZ=             -2.2953
 XXYZ=             -0.0268 YYXZ=             -0.2491 ZZXY=             -0.9441
 N-N= 1.853636671368D+03 E-N= 7.183263318734D-01  KE=-1.318484693000D-01
 Leave Link  601 at Mon Feb  9 16:29:49 2026, MaxMem= 16106127360 cpu:               1.8 elap:               0.1
 (Enter /home/software/g16-shuai/g16/l602.exe)
 FitSet:  NAtFit=    33 NAtPot=    33 NAtFrz=     0 MDM=    37 TotChg=   0.00000
 Merz-Kollman atomic radii used.
 GetVDW:  no radius for atom   1 atomic number  78.
 Error termination via Lnk1e in /home/software/g16-shuai/g16/l602.exe at Mon Feb  9 16:29:49 2026.
 Job cpu time:       0 days  2 hours 22 minutes 38.8 seconds.
 Elapsed time:       0 days  0 hours  2 minutes 36.1 seconds.
 File lengths (MBytes):  RWF=   1316 Int=      0 D2E=      0 Chk=     24 Scr=      1
