 Entering Gaussian System, Link 0=g16
 Input=freq_15_1_s0.com
 Output=freq_15_1_s0.log
 Initial command:
 /home/software/g16-shuai/g16/l1.exe "/tmp/zgshuai_229502/g16_tmp/Gau-601641.inp" -scrdir="/tmp/zgshuai_229502/g16_tmp/"
 Entering Link 1 = /home/software/g16-shuai/g16/l1.exe PID=    601642.
  
 Copyright (c) 1988-2019, Gaussian, Inc.  All Rights Reserved.
  
 This is part of the Gaussian(R) 16 program.  It is based on
 the Gaussian(R) 09 system (copyright 2009, Gaussian, Inc.),
 the Gaussian(R) 03 system (copyright 2003, Gaussian, Inc.),
 the Gaussian(R) 98 system (copyright 1998, Gaussian, Inc.),
 the Gaussian(R) 94 system (copyright 1995, Gaussian, Inc.),
 the Gaussian 92(TM) system (copyright 1992, Gaussian, Inc.),
 the Gaussian 90(TM) system (copyright 1990, Gaussian, Inc.),
 the Gaussian 88(TM) system (copyright 1988, Gaussian, Inc.),
 the Gaussian 86(TM) system (copyright 1986, Carnegie Mellon
 University), and the Gaussian 82(TM) system (copyright 1983,
 Carnegie Mellon University). Gaussian is a federally registered
 trademark of Gaussian, Inc.
  
 This software contains proprietary and confidential information,
 including trade secrets, belonging to Gaussian, Inc.
  
 This software is provided under written license and may be
 used, copied, transmitted, or stored only in accord with that
 written license.
  
 The following legend is applicable only to US Government
 contracts under FAR:
  
                    RESTRICTED RIGHTS LEGEND
  
 Use, reproduction and disclosure by the US Government is
 subject to restrictions as set forth in subparagraphs (a)
 and (c) of the Commercial Computer Software - Restricted
 Rights clause in FAR 52.227-19.
  
 Gaussian, Inc.
 340 Quinnipiac St., Bldg. 40, Wallingford CT 06492
  
  
 ---------------------------------------------------------------
 Warning -- This program may not be used in any manner that
 competes with the business of Gaussian, Inc. or will provide
 assistance to any competitor of Gaussian, Inc.  The licensee
 of this program is prohibited from giving any competitor of
 Gaussian, Inc. access to this program.  By using this program,
 the user acknowledges that Gaussian, Inc. is engaged in the
 business of creating and licensing software in the field of
 computational chemistry and represents and warrants to the
 licensee that it is not a competitor of Gaussian, Inc. and that
 it will not use this program in any manner prohibited above.
 ---------------------------------------------------------------
  

 Cite this work as:
 Gaussian 16, Revision C.01,
 M. J. Frisch, G. W. Trucks, H. B. Schlegel, G. E. Scuseria, 
 M. A. Robb, J. R. Cheeseman, G. Scalmani, V. Barone, 
 G. A. Petersson, H. Nakatsuji, X. Li, M. Caricato, A. V. Marenich, 
 J. Bloino, B. G. Janesko, R. Gomperts, B. Mennucci, H. P. Hratchian, 
 J. V. Ortiz, A. F. Izmaylov, J. L. Sonnenberg, D. Williams-Young, 
 F. Ding, F. Lipparini, F. Egidi, J. Goings, B. Peng, A. Petrone, 
 T. Henderson, D. Ranasinghe, V. G. Zakrzewski, J. Gao, N. Rega, 
 G. Zheng, W. Liang, M. Hada, M. Ehara, K. Toyota, R. Fukuda, 
 J. Hasegawa, M. Ishida, T. Nakajima, Y. Honda, O. Kitao, H. Nakai, 
 T. Vreven, K. Throssell, J. A. Montgomery, Jr., J. E. Peralta, 
 F. Ogliaro, M. J. Bearpark, J. J. Heyd, E. N. Brothers, K. N. Kudin, 
 V. N. Staroverov, T. A. Keith, R. Kobayashi, J. Normand, 
 K. Raghavachari, A. P. Rendell, J. C. Burant, S. S. Iyengar, 
 J. Tomasi, M. Cossi, J. M. Millam, M. Klene, C. Adamo, R. Cammi, 
 J. W. Ochterski, R. L. Martin, K. Morokuma, O. Farkas, 
 J. B. Foresman, and D. J. Fox, Gaussian, Inc., Wallingford CT, 2019.
 
 ******************************************
 Gaussian 16:  ES64L-G16RevC.01  3-Jul-2019
                 8-Feb-2026 
 ******************************************
 %nprocshared=56
 Will use up to   56 processors via shared memory.
 %mem=120GB
 %chk=s0_opt.chk
 ----------------------------------------------------------------------
 #p freq TPSSh/def2svp scrf=solvent=CH2Cl2 empiricaldispersion=gd3bj IO
 p(3/174=1000000,3/175=2238200,3/177=452900,3/178=4655000) nosymm
 ----------------------------------------------------------------------
 1/10=4,30=1,38=1/1,3;
 2/12=2,15=1,17=6,18=5,40=1/2;
 3/5=43,7=101,11=2,25=1,30=1,70=2201,71=2,72=9,74=-35,124=41,140=1,174=1000000,175=2238200,177=452900,178=4655000/1,2,3;
 4//1;
 5/5=2,38=5,53=9,98=1/2;
 8/6=4,10=90,11=11/1;
 11/6=1,8=1,9=11,15=111,16=1,31=1/1,2,10;
 10/6=1,31=1/2;
 6/7=2,8=2,9=2,10=2,28=1/1;
 7/8=1,10=1,25=1,30=1/1,2,3,16;
 1/10=4,30=1/3;
 99//99;
 Leave Link    1 at Sun Feb  8 16:57:55 2026, MaxMem= 16106127360 cpu:               1.1 elap:               0.0
 (Enter /home/software/g16-shuai/g16/l101.exe)
 ------------
 test2-s0freq
 ------------
 Symbolic Z-matrix:
 Charge =  0 Multiplicity = 1
 Pt                    0.48596  -0.41134  -0.01371 
 C                     0.50197   1.53842   0.00327 
 C                    -0.70006   2.24983  -0.00819 
 C                     1.71545   2.22972   0.03112 
 C                    -0.71202   3.64781   0.00748 
 C                     1.74994   3.62732   0.04742 
 C                     0.52449   4.31664   0.03512 
 H                    -1.64389   4.21566  -0.0006 
 H                     2.69077   4.1797    0.06927 
 H                     0.53342   5.40829   0.04774 
 C                     2.5019   -0.02773   0.02128 
 C                     4.74278   0.28489   0.05575 
 H                     5.78563  -0.01723   0.06707 
 C                    -1.5234    0.00572  -0.04252 
 C                    -3.7588    0.35597  -0.07339 
 H                    -4.80649   0.07146  -0.0917 
 Cl                    0.46723  -2.86986  -0.02052 
 C                     3.90088  -2.09011   0.01775 
 H                     4.45482  -2.39675   0.91594 
 H                     2.9105   -2.56367   0.00455 
 H                     4.46939  -2.3776   -0.87773 
 C                    -2.95592  -2.03296  -0.08114 
 H                    -1.9735   -2.52287  -0.06749 
 H                    -3.53748  -2.32753   0.80356 
 H                    -3.50627  -2.31389  -0.98993 
 N                     2.80873   1.32329   0.03937 
 N                     3.70813  -0.64314   0.03178 
 N                    -2.73961  -0.58934  -0.06615 
 N                    -1.80791   1.36169  -0.03477 
 C                    -3.17112   1.58729  -0.05354 
 C                     4.17557   1.52592   0.06062 
 H                    -3.60616   2.58152  -0.05155 
 H                     4.6274    2.51254   0.07714 
 
 ITRead=  0  0  0  0  0  0  0  0  0  0  0  0  0  0  0  0  0  0  0  0
 ITRead=  0  0  0  0  0  0  0  0  0  0  0  0  0
 MicOpt= -1 -1 -1 -1 -1 -1 -1 -1 -1 -1 -1 -1 -1 -1 -1 -1 -1 -1 -1 -1
 MicOpt= -1 -1 -1 -1 -1 -1 -1 -1 -1 -1 -1 -1 -1
 NAtoms=     33 NQM=       33 NQMF=       0 NMMI=      0 NMMIF=      0
                NMic=       0 NMicF=      0.
                    Isotopes and Nuclear Properties:
 (Nuclear quadrupole moments (NQMom) in fm**2, nuclear magnetic moments (NMagM)
  in nuclear magnetons)

  Atom         1           2           3           4           5           6           7           8           9          10
 IAtWgt=         195          12          12          12          12          12          12           1           1           1
 AtmWgt= 194.9648000  12.0000000  12.0000000  12.0000000  12.0000000  12.0000000  12.0000000   1.0078250   1.0078250   1.0078250
 NucSpn=           1           0           0           0           0           0           0           1           1           1
 AtZEff=  -0.0000000  -0.0000000  -0.0000000  -0.0000000  -0.0000000  -0.0000000  -0.0000000  -0.0000000  -0.0000000  -0.0000000
 NQMom=    0.0000000   0.0000000   0.0000000   0.0000000   0.0000000   0.0000000   0.0000000   0.0000000   0.0000000   0.0000000
 NMagM=    0.6095000   0.0000000   0.0000000   0.0000000   0.0000000   0.0000000   0.0000000   2.7928460   2.7928460   2.7928460
 AtZNuc=  78.0000000   6.0000000   6.0000000   6.0000000   6.0000000   6.0000000   6.0000000   1.0000000   1.0000000   1.0000000

  Atom        11          12          13          14          15          16          17          18          19          20
 IAtWgt=          12          12           1          12          12           1          35          12           1           1
 AtmWgt=  12.0000000  12.0000000   1.0078250  12.0000000  12.0000000   1.0078250  34.9688527  12.0000000   1.0078250   1.0078250
 NucSpn=           0           0           1           0           0           1           3           0           1           1
 AtZEff=  -0.0000000  -0.0000000  -0.0000000  -0.0000000  -0.0000000  -0.0000000  -0.0000000  -0.0000000  -0.0000000  -0.0000000
 NQMom=    0.0000000   0.0000000   0.0000000   0.0000000   0.0000000   0.0000000  -8.1650000   0.0000000   0.0000000   0.0000000
 NMagM=    0.0000000   0.0000000   2.7928460   0.0000000   0.0000000   2.7928460   0.8218740   0.0000000   2.7928460   2.7928460
 AtZNuc=   6.0000000   6.0000000   1.0000000   6.0000000   6.0000000   1.0000000  17.0000000   6.0000000   1.0000000   1.0000000

  Atom        21          22          23          24          25          26          27          28          29          30
 IAtWgt=           1          12           1           1           1          14          14          14          14          12
 AtmWgt=   1.0078250  12.0000000   1.0078250   1.0078250   1.0078250  14.0030740  14.0030740  14.0030740  14.0030740  12.0000000
 NucSpn=           1           0           1           1           1           2           2           2           2           0
 AtZEff=  -0.0000000  -0.0000000  -0.0000000  -0.0000000  -0.0000000  -0.0000000  -0.0000000  -0.0000000  -0.0000000  -0.0000000
 NQMom=    0.0000000   0.0000000   0.0000000   0.0000000   0.0000000   2.0440000   2.0440000   2.0440000   2.0440000   0.0000000
 NMagM=    2.7928460   0.0000000   2.7928460   2.7928460   2.7928460   0.4037610   0.4037610   0.4037610   0.4037610   0.0000000
 AtZNuc=   1.0000000   6.0000000   1.0000000   1.0000000   1.0000000   7.0000000   7.0000000   7.0000000   7.0000000   6.0000000

  Atom        31          32          33
 IAtWgt=          12           1           1
 AtmWgt=  12.0000000   1.0078250   1.0078250
 NucSpn=           0           1           1
 AtZEff=  -0.0000000  -0.0000000  -0.0000000
 NQMom=    0.0000000   0.0000000   0.0000000
 NMagM=    0.0000000   2.7928460   2.7928460
 AtZNuc=   6.0000000   1.0000000   1.0000000
 Leave Link  101 at Sun Feb  8 16:57:55 2026, MaxMem= 16106127360 cpu:               3.6 elap:               0.1
 (Enter /home/software/g16-shuai/g16/l103.exe)

 GradGradGradGradGradGradGradGradGradGradGradGradGradGradGradGradGradGrad
 Berny optimization.
 Initialization pass.
 Trust Radius=3.00D-01 FncErr=1.00D-07 GrdErr=1.00D-07 EigMax=2.50D+02 EigMin=1.00D-04
 Number of steps in this run=      2 maximum allowed number of steps=      2.
 GradGradGradGradGradGradGradGradGradGradGradGradGradGradGradGradGradGrad

 Leave Link  103 at Sun Feb  8 16:57:55 2026, MaxMem= 16106127360 cpu:               0.8 elap:               0.0
 (Enter /home/software/g16-shuai/g16/l202.exe)
                          Input orientation:                          
 ---------------------------------------------------------------------
 Center     Atomic      Atomic             Coordinates (Angstroms)
 Number     Number       Type             X           Y           Z
 ---------------------------------------------------------------------
      1         78           0        0.485960   -0.411340   -0.013710
      2          6           0        0.501970    1.538420    0.003270
      3          6           0       -0.700060    2.249830   -0.008190
      4          6           0        1.715450    2.229720    0.031120
      5          6           0       -0.712020    3.647810    0.007480
      6          6           0        1.749940    3.627320    0.047420
      7          6           0        0.524490    4.316640    0.035120
      8          1           0       -1.643890    4.215660   -0.000600
      9          1           0        2.690770    4.179700    0.069270
     10          1           0        0.533420    5.408290    0.047740
     11          6           0        2.501900   -0.027730    0.021280
     12          6           0        4.742780    0.284890    0.055750
     13          1           0        5.785630   -0.017230    0.067070
     14          6           0       -1.523400    0.005720   -0.042520
     15          6           0       -3.758800    0.355970   -0.073390
     16          1           0       -4.806490    0.071460   -0.091700
     17         17           0        0.467230   -2.869860   -0.020520
     18          6           0        3.900880   -2.090110    0.017750
     19          1           0        4.454820   -2.396750    0.915940
     20          1           0        2.910500   -2.563670    0.004550
     21          1           0        4.469390   -2.377600   -0.877730
     22          6           0       -2.955920   -2.032960   -0.081140
     23          1           0       -1.973500   -2.522870   -0.067490
     24          1           0       -3.537480   -2.327530    0.803560
     25          1           0       -3.506270   -2.313890   -0.989930
     26          7           0        2.808730    1.323290    0.039370
     27          7           0        3.708130   -0.643140    0.031780
     28          7           0       -2.739610   -0.589340   -0.066150
     29          7           0       -1.807910    1.361690   -0.034770
     30          6           0       -3.171120    1.587290   -0.053540
     31          6           0        4.175570    1.525920    0.060620
     32          1           0       -3.606160    2.581520   -0.051550
     33          1           0        4.627400    2.512540    0.077140
 ---------------------------------------------------------------------
                    Distance matrix (angstroms):
                    1          2          3          4          5
     1  Pt   0.000000
     2  C    1.949900   0.000000
     3  C    2.913503   1.396822   0.000000
     4  C    2.913564   1.396855   2.415914   0.000000
     5  C    4.232293   2.433786   1.398119   2.811432   0.000000
     6  C    4.232276   2.433697   2.811240   1.398121   2.462369
     7  C    4.728389   2.778494   2.402728   2.402839   1.406078
     8  H    5.093679   3.431085   2.180679   3.902580   1.091284
     9  H    5.093694   3.430971   3.902323   2.180625   3.444663
    10  H    5.820148   3.870253   3.391234   3.391280   2.156857
    11  C    2.052412   2.540250   3.929465   2.390540   4.882527
    12  C    4.313940   4.422506   5.787019   3.598291   6.408307
    13  H    5.314918   5.508283   6.870910   4.649349   7.460263
    14  C    2.052388   2.540352   2.390627   3.929599   3.731710
    15  C    4.313967   4.422468   3.598173   5.786992   4.486159
    16  H    5.314998   5.508243   4.649197   6.870871   5.437352
    17  Cl   2.458601   4.408481   5.251090   5.250375   6.623552
    18  C    3.805383   4.971823   6.324903   4.841200   7.362247
    19  H    4.534088   5.651863   7.001251   5.448970   8.003639
    20  H    3.242106   4.756907   6.017149   4.940186   7.190629
    21  H    4.525530   5.643739   6.992312   5.444042   7.996010
    22  C    3.805356   4.971809   4.841128   6.324930   6.108526
    23  H    3.241974   4.756788   4.940023   6.017075   6.298749
    24  H    4.530760   5.648291   5.446294   6.997033   6.657451
    25  H    4.528863   5.647365   5.446666   6.996663   6.659169
    26  N    2.899486   2.317051   3.629373   1.420192   4.219015
    27  N    3.230817   3.878077   5.272856   3.496298   6.160403
    28  N    3.230903   3.878147   3.496285   5.272961   4.697870
    29  N    2.899296   2.316943   1.420152   3.629309   2.535568
    30  C    4.167774   3.673854   2.558741   4.929346   3.208838
    31  C    4.167940   3.674069   4.929559   2.558983   5.328581
    32  H    5.069920   4.238844   2.925289   5.333866   3.084883
    33  H    5.070390   4.239521   5.334616   2.926014   5.459221
                    6          7          8          9         10
     6  C    0.000000
     7  C    1.406073   0.000000
     8  H    3.444783   2.171024   0.000000
     9  H    1.091220   2.170873   4.335372   0.000000
    10  H    2.156797   1.091759   2.483019   2.482752   0.000000
    11  C    3.731691   4.773248   5.932488   4.211940   5.781516
    12  C    4.486535   5.835187   7.499579   4.402326   6.630837
    13  H    5.437824   6.816381   8.551006   5.214632   7.551315
    14  C    4.882502   4.773250   4.211872   5.932439   5.781558
    15  C    6.408006   5.834831   4.401744   7.499214   6.630518
    16  H    7.459911   6.815936   5.213898   8.550582   7.550883
    17  Cl   6.622938   7.186943   7.393363   7.392462   8.278696
    18  C    6.108717   7.242013   8.396877   6.385729   8.219896
    19  H    6.660339   7.828981   9.042028   6.861371   8.777801
    20  H    6.298976   7.282352   8.167118   6.747259   8.318925
    21  H    6.656604   7.823578   9.033971   6.859918   8.773166
    22  C    7.362093   7.241836   6.385387   8.396718   8.219751
    23  H    7.190414   7.282127   6.746918   8.166919   8.318727
    24  H    7.999300   7.825286   6.858986   9.037385   8.774190
    25  H    8.000113   7.826984   6.861651   9.038358   8.776555
    26  N    2.535676   3.765357   5.309729   2.859001   4.675931
    27  N    4.698040   5.893640   7.228631   4.929119   6.833655
    28  N    6.160290   5.893492   4.928785   7.228493   6.833539
    29  N    4.218783   3.765196   2.858884   5.309437   4.675853
    30  C    5.328109   4.595078   3.040323   6.410727   5.322961
    31  C    3.209320   4.595558   6.411284   3.040930   5.323365
    32  H    5.458141   4.481118   2.554117   6.497700   5.013642
    33  H    3.086000   4.482233   6.498903   2.555390   5.014669
                   11         12         13         14         15
    11  C    0.000000
    12  C    2.262844   0.000000
    13  H    3.284066   1.085790   0.000000
    14  C    4.025945   6.273165   7.309888   0.000000
    15  C    6.273161   8.502858   9.552756   2.262883   0.000000
    16  H    7.309936   9.552793  10.593681   3.284116   1.085788
    17  Cl   3.495616   5.314000   6.035772   3.497435   5.316776
    18  C    2.492101   2.520092   2.802061   5.815406   8.041288
    19  H    3.197901   2.830908   2.855477   6.513802   8.718933
    20  H    2.568701   3.387354   3.841177   5.124788   7.280792
    21  H    3.193920   2.834604   2.862950   6.503178   8.707610
    22  C    5.815431   8.041216   8.972170   2.491951   2.520251
    23  H    5.124725   7.280599   8.154780   2.568459   3.387484
    24  H    6.509620   8.714738   9.633290   3.196314   2.831819
    25  H    6.507471   8.711712   9.629709   3.195301   2.834073
    26  N    1.385542   2.195243   3.264919   4.528802   6.639343
    27  N    1.354190   1.390077   2.170026   5.272139   7.534210
    28  N    5.272236   7.534275   8.545453   1.354187   1.390112
    29  N    4.528586   6.639219   7.718396   1.385518   2.195208
    30  C    5.898902   8.021097   9.100132   2.283958   1.364519
    31  C    2.283976   1.364517   2.230167   5.899144   8.021282
    32  H    6.642431   8.659724   9.745424   3.312509   2.230885
    33  H    3.312679   2.230739   2.782325   6.643102   8.660358
                   16         17         18         19         20
    16  H    0.000000
    17  Cl   6.038920   0.000000
    18  C    8.972327   3.521282   0.000000
    19  H    9.637389   4.123307   1.098919   0.000000
    20  H    8.155066   2.462509   1.097855   1.800949   0.000000
    21  H    9.625886   4.122428   1.098972   1.793831   1.800883
    22  C    2.802375   3.524490   6.857751   7.486360   5.891000
    23  H    3.841480   2.465719   5.890916   6.504332   4.884702
    24  H    2.857802   4.124431   7.483520   7.993390   6.501586
    25  H    2.861343   4.127658   7.478728   8.186462   6.498178
    26  N    7.718538   4.802990   3.583931   4.161332   3.888448
    27  N    8.545446   3.932486   1.459819   2.101055   2.079757
    28  N    2.170093   3.935311   6.808484   7.482717   5.985543
    29  N    3.264876   4.804423   6.671429   7.365562   6.137865
    30  C    2.230164   5.753683   7.971295   8.658373   7.363419
    31  C    9.100333   5.751630   3.626702   4.024536   4.281155
    32  H    2.782590   6.805220   8.842204   9.523582   8.303191
    33  H    9.746059   6.803439   4.660016   4.983422   5.359191
                   21         22         23         24         25
    21  H    0.000000
    22  C    7.475865   0.000000
    23  H    6.495262   1.097883   0.000000
    24  H    8.181639   1.098944   1.800811   0.000000
    25  H    7.976704   1.098957   1.801097   1.793813   0.000000
    26  N    4.158780   6.671591   6.137922   7.361172   7.359875
    27  N    2.101208   6.808371   5.985329   7.478748   7.475484
    28  N    7.471694   1.459813   2.079775   2.101023   2.101240
    29  N    7.355091   3.583814   3.888225   4.159874   4.160126
    30  C    8.647372   3.626745   4.281110   4.024258   4.025960
    31  C    4.025456   7.971441   7.363435   8.654027   8.652078
    32  H    9.512621   4.660162   5.359163   4.983443   4.985536
    33  H    4.984999   8.842701   8.303502   9.519413   9.517860
                   26         27         28         29         30
    26  N    0.000000
    27  N    2.162366   0.000000
    28  N    5.869699   6.448708   0.000000
    29  N    4.617395   5.869452   2.162306   0.000000
    30  C    5.986396   7.232301   2.219026   1.381879   0.000000
    31  C    1.381941   2.219043   7.232573   5.986493   7.347833
    32  H    6.537754   7.994011   3.287168   2.173009   1.085245
    33  H    2.173316   3.287162   7.994687   6.538363   7.854303
                   31         32         33
    31  C    0.000000
    32  H    7.853801   0.000000
    33  H    1.085284   8.234855   0.000000
 Symmetry turned off by external request.
 Stoichiometry    C14H13ClN4Pt
 Framework group  C1[X(C14H13ClN4Pt)]
 Deg. of freedom    93
 Full point group                 C1      NOp   1
 Rotational constants (GHZ):           0.3754590           0.2763556           0.1595135
 Leave Link  202 at Sun Feb  8 16:57:55 2026, MaxMem= 16106127360 cpu:               0.1 elap:               0.0
 (Enter /home/software/g16-shuai/g16/l301.exe)
 Standard basis: def2SVP (5D, 7F)
 Ernie: Thresh=  0.10000D-02 Tol=  0.10000D-05 Strict=F.
   367 basis functions,   643 primitive gaussians,   391 cartesian basis functions
    80 alpha electrons       80 beta electrons
       nuclear repulsion energy      1853.6986529426 Hartrees.
 IExCor= 2523 DFT=T Ex+Corr=TPSSh ExCW=0 ScaHFX=  0.100000
 ScaDFX=  0.900000  0.900000  1.000000  1.000000 ScalE2=  1.000000  1.000000
 IRadAn=      5 IRanWt=     -1 IRanGd=            0 ICorTp=0 IEmpDi=141
 NAtoms=   33 NActive=   33 NUniq=   33 SFac= 1.00D+00 NAtFMM=   60 NAOKFM=F Big=F
 Integral buffers will be    131072 words long.
 Raffenetti 2 integral format.
 Two-electron integral symmetry is turned off.
 R6DIni: Non-standard D2/D3 S6 parameter, value=     1.000000
 R6DIni: Non-standard D2/D3 S8 parameter, value=     2.238200
 R6DIni: Non-standard D3BJ A1 parameter, value=     0.452900
 R6DIni: Non-standard D3BJ A2 parameter, value=     4.655000
 R6Disp:  Grimme-D3(BJ) Dispersion energy=       -0.0619815742 Hartrees.
 Nuclear repulsion after empirical dispersion term =     1853.6366713683 Hartrees.
 Force inversion solution in PCM.
 ------------------------------------------------------------------------------
 Polarizable Continuum Model (PCM)
 =================================
 Model                : PCM.
 Atomic radii         : UFF (Universal Force Field).
 Polarization charges : Total charges.
 Charge compensation  : None.
 Solution method      : Matrix inversion.
 Cavity type          : Scaled VdW (van der Waals Surface) (Alpha=1.100).
 Cavity algorithm     : GePol (No added spheres)
                        Default sphere list used, NSphG=   33.
                        Lebedev-Laikov grids with approx.  5.0 points / Ang**2.
                        Smoothing algorithm: York/Karplus (Gamma=1.0000).
                        Polarization charges: spherical gaussians, with
                                              point-specific exponents (IZeta= 3).
                        Self-potential: point-specific (ISelfS= 7).
                        Self-field    : sphere-specific E.n sum rule (ISelfD= 2).
 1st derivatives      : Analytical E(r).r(x)/FMM algorithm (CHGder, D1EAlg=3).
                        Cavity 1st derivative terms included.
 2nd derivatives      : Analytical E(r).r(xy)/FMM algorithm (CHGder, D2EAlg=3).
                        Cavity 2nd derivative terms included.
 Solvent              : Dichloromethane, Eps=   8.930000 Eps(inf)=   2.028346
 ------------------------------------------------------------------------------
 GePol: Number of generator spheres                  =      33
 GePol: Total number of spheres                      =      33
 GePol: Number of exposed spheres                    =      33 (100.00%)
 GePol: Number of points                             =    2564
 GePol: Average weight of points                     =       0.13
 GePol: Minimum weight of points                     =   0.16D-08
 GePol: Maximum weight of points                     =    0.21838
 GePol: Number of points with low weight             =     150
 GePol: Fraction of low-weight points (<1% of avg)   =       5.85%
 GePol: Cavity surface area                          =    342.517 Ang**2
 GePol: Cavity volume                                =    376.613 Ang**3
 Leave Link  301 at Sun Feb  8 16:57:55 2026, MaxMem= 16106127360 cpu:               2.5 elap:               0.1
 (Enter /home/software/g16-shuai/g16/l302.exe)
 NPDir=0 NMtPBC=     1 NCelOv=     1 NCel=       1 NClECP=     1 NCelD=      1
         NCelK=      1 NCelE2=     1 NClLst=     1 CellRange=     0.0.
 One-electron integrals computed using PRISM.
   1 Symmetry operations used in ECPInt.
 ECPInt:  NShTT=   14028 NPrTT=   51030 LenC2=   12720 LenP2D=   32483.
 LDataN:  DoStor=T MaxTD1= 8 Len=  415
 NBasis=   367 RedAO= T EigKep=  2.15D-04  NBF=   367
 NBsUse=   367 1.00D-06 EigRej= -1.00D+00 NBFU=   367
 Precomputing XC quadrature grid using
 IXCGrd= 4 IRadAn=           5 IRanWt=          -1 IRanGd=           0 AccXCQ= 0.00D+00.
 Defaulting to unpruned grid for atomic number  78.
 Generated NRdTot=       0 NPtTot=           0 NUsed=           0 NTot=          32
 NSgBfM=   389   389   389   389   389 MxSgAt=    33 MxSgA2=    33.
 Leave Link  302 at Sun Feb  8 16:57:55 2026, MaxMem= 16106127360 cpu:              19.3 elap:               0.4
 (Enter /home/software/g16-shuai/g16/l303.exe)
 DipDrv:  MaxL=1.
 Leave Link  303 at Sun Feb  8 16:57:55 2026, MaxMem= 16106127360 cpu:               1.9 elap:               0.1
 (Enter /home/software/g16-shuai/g16/l401.exe)
 ExpMin= 4.90D-02 ExpMax= 1.04D+04 ExpMxC= 1.57D+03 IAcc=3 IRadAn=         5 AccDes= 0.00D+00
 Harris functional with IExCor= 1009 and IRadAn=       5 diagonalized for initial guess.
 HarFok:  IExCor= 1009 AccDes= 0.00D+00 IRadAn=         5 IDoV= 1 UseB2=F ITyADJ=14
 ICtDFT=  3500011 ScaDFX=  1.000000  1.000000  1.000000  1.000000
 Defaulting to unpruned grid for atomic number  78.
 FoFCou: FMM=F IPFlag=           0 FMFlag=      100000 FMFlg1=           0
         NFxFlg=           0 DoJE=T BraDBF=F KetDBF=T FulRan=T
         wScrn=  0.000000 ICntrl=       500 IOpCl=  0 I1Cent=   200000004 NGrid=           0
         NMat0=    1 NMatS0=      1 NMatT0=    0 NMatD0=    1 NMtDS0=    0 NMtDT0=    0
 Symmetry not used in FoFCou.
 Harris En= -1338.24108410541    
 JPrj=0 DoOrth=F DoCkMO=F.
 Leave Link  401 at Sun Feb  8 16:57:56 2026, MaxMem= 16106127360 cpu:              36.0 elap:               0.7
 (Enter /home/software/g16-shuai/g16/l502.exe)
 Two-electron integral symmetry not used.
 Closed shell SCF:
 Using DIIS extrapolation, IDIIS=  1040.
 NGot= 16106127360 LenX= 16105795799 LenY= 16105642477
 Requested convergence on RMS density matrix=1.00D-08 within 128 cycles.
 Requested convergence on MAX density matrix=1.00D-06.
 Requested convergence on             energy=1.00D-06.
 No special actions if energy rises.
 Fock matrices will be formed incrementally for  20 cycles.

 Cycle   1  Pass 1  IDiag  1:
 FoFJK:  IHMeth= 1 ICntrl=       0 DoSepK=F KAlg= 0 I1Cent=           0 FoldK=F
 IRaf= 850000000 NMat=       1 IRICut=       1 DoRegI=T DoRafI=F ISym2E= 0 IDoP0=0 IntGTp=1.
 FoFCou: FMM=F IPFlag=           0 FMFlag=      100000 FMFlg1=           0
         NFxFlg=           0 DoJE=F BraDBF=F KetDBF=F FulRan=T
         wScrn=  0.000000 ICntrl=         0 IOpCl=  0 I1Cent=           0 NGrid=           0
         NMat0=    1 NMatS0=      1 NMatT0=    0 NMatD0=    1 NMtDS0=    0 NMtDT0=    0
 Symmetry not used in FoFCou.
 Defaulting to unpruned grid for atomic number  78.
 Defaulting to unpruned grid for atomic number  78.
 Defaulting to unpruned grid for atomic number  78.
 Defaulting to unpruned grid for atomic number  78.
 Defaulting to unpruned grid for atomic number  78.
 Defaulting to unpruned grid for atomic number  78.
 Defaulting to unpruned grid for atomic number  78.
 Defaulting to unpruned grid for atomic number  78.
 Defaulting to unpruned grid for atomic number  78.
 Defaulting to unpruned grid for atomic number  78.
 Defaulting to unpruned grid for atomic number  78.
 Defaulting to unpruned grid for atomic number  78.
 Defaulting to unpruned grid for atomic number  78.
 Defaulting to unpruned grid for atomic number  78.
 Defaulting to unpruned grid for atomic number  78.
 Defaulting to unpruned grid for atomic number  78.
 Defaulting to unpruned grid for atomic number  78.
 Defaulting to unpruned grid for atomic number  78.
 Defaulting to unpruned grid for atomic number  78.
 Defaulting to unpruned grid for atomic number  78.
 Defaulting to unpruned grid for atomic number  78.
 Defaulting to unpruned grid for atomic number  78.
 Defaulting to unpruned grid for atomic number  78.
 Defaulting to unpruned grid for atomic number  78.
 Defaulting to unpruned grid for atomic number  78.
 Defaulting to unpruned grid for atomic number  78.
 Defaulting to unpruned grid for atomic number  78.
 Defaulting to unpruned grid for atomic number  78.
 Defaulting to unpruned grid for atomic number  78.
 Defaulting to unpruned grid for atomic number  78.
 Defaulting to unpruned grid for atomic number  78.
 Defaulting to unpruned grid for atomic number  78.
 Defaulting to unpruned grid for atomic number  78.
 Defaulting to unpruned grid for atomic number  78.
 Defaulting to unpruned grid for atomic number  78.
 Defaulting to unpruned grid for atomic number  78.
 Defaulting to unpruned grid for atomic number  78.
 Defaulting to unpruned grid for atomic number  78.
 Defaulting to unpruned grid for atomic number  78.
 Defaulting to unpruned grid for atomic number  78.
 Defaulting to unpruned grid for atomic number  78.
 Defaulting to unpruned grid for atomic number  78.
 Defaulting to unpruned grid for atomic number  78.
 Defaulting to unpruned grid for atomic number  78.
 Defaulting to unpruned grid for atomic number  78.
 Defaulting to unpruned grid for atomic number  78.
 Defaulting to unpruned grid for atomic number  78.
 Defaulting to unpruned grid for atomic number  78.
 Defaulting to unpruned grid for atomic number  78.
 Defaulting to unpruned grid for atomic number  78.
 Defaulting to unpruned grid for atomic number  78.
 Defaulting to unpruned grid for atomic number  78.
 Defaulting to unpruned grid for atomic number  78.
 Defaulting to unpruned grid for atomic number  78.
 Defaulting to unpruned grid for atomic number  78.
 Defaulting to unpruned grid for atomic number  78.
 Inv3:  Mode=1 IEnd=    19722288.
 Iteration    1 A*A^-1 deviation from unit magnitude is 4.11D-15 for   2555.
 Iteration    1 A*A^-1 deviation from orthogonality  is 1.72D-15 for   2038    129.
 Iteration    1 A^-1*A deviation from unit magnitude is 4.33D-15 for   2555.
 Iteration    1 A^-1*A deviation from orthogonality  is 1.90D-15 for   2563   2479.
 E= -1338.39783401987    
 DIIS: error= 6.51D-02 at cycle   1 NSaved=   1.
 NSaved= 1 IEnMin= 1 EnMin= -1338.39783401987     IErMin= 1 ErrMin= 6.51D-02
 ErrMax= 6.51D-02  0.00D+00 EMaxC= 1.00D-01 BMatC= 1.13D+00 BMatP= 1.13D+00
 IDIUse=3 WtCom= 3.49D-01 WtEn= 6.51D-01
 Coeff-Com:  0.100D+01
 Coeff-En:   0.100D+01
 Coeff:      0.100D+01
 Gap=     0.665 Goal=   None    Shift=    0.000
 GapD=    0.665 DampG=2.000 DampE=0.250 DampFc=0.5000 IDamp=-1.
 Damping current iteration by 5.00D-01
 RMSDP=1.18D-02 MaxDP=9.54D-01              OVMax= 7.34D-01

 Cycle   2  Pass 1  IDiag  1:
 RMSU=  5.92D-03    CP:  1.00D+00
 E= -1338.37064758814     Delta-E=        0.027186431729 Rises=F Damp=T
 DIIS: error= 2.25D-02 at cycle   2 NSaved=   2.
 NSaved= 2 IEnMin= 1 EnMin= -1338.39783401987     IErMin= 2 ErrMin= 2.25D-02
 ErrMax= 2.25D-02  0.00D+00 EMaxC= 1.00D-01 BMatC= 2.56D-01 BMatP= 1.13D+00
 IDIUse=3 WtCom= 7.75D-01 WtEn= 2.25D-01
 Coeff-Com:  0.283D+00 0.717D+00
 Coeff-En:   0.509D+00 0.491D+00
 Coeff:      0.334D+00 0.666D+00
 Gap=     0.059 Goal=   None    Shift=    0.000
 RMSDP=5.46D-03 MaxDP=4.14D-01 DE= 2.72D-02 OVMax= 6.24D-01

 Cycle   3  Pass 1  IDiag  1:
 RMSU=  3.48D-03    CP:  9.68D-01  2.97D-01
 E= -1339.23517711223     Delta-E=       -0.864529524086 Rises=F Damp=F
 DIIS: error= 2.20D-02 at cycle   3 NSaved=   3.
 NSaved= 3 IEnMin= 3 EnMin= -1339.23517711223     IErMin= 3 ErrMin= 2.20D-02
 ErrMax= 2.20D-02  0.00D+00 EMaxC= 1.00D-01 BMatC= 1.67D-01 BMatP= 2.56D-01
 IDIUse=3 WtCom= 7.80D-01 WtEn= 2.20D-01
 Coeff-Com:  0.181D+00 0.412D+00 0.407D+00
 Coeff-En:   0.554D-01 0.000D+00 0.945D+00
 Coeff:      0.154D+00 0.321D+00 0.526D+00
 Gap=     0.181 Goal=   None    Shift=    0.000
 RMSDP=2.20D-03 MaxDP=1.26D-01 DE=-8.65D-01 OVMax= 1.43D-01

 Cycle   4  Pass 1  IDiag  1:
 RMSU=  1.90D-03    CP:  9.69D-01  2.49D-01  6.91D-01
 E= -1339.35109980595     Delta-E=       -0.115922693720 Rises=F Damp=F
 DIIS: error= 1.36D-02 at cycle   4 NSaved=   4.
 NSaved= 4 IEnMin= 4 EnMin= -1339.35109980595     IErMin= 4 ErrMin= 1.36D-02
 ErrMax= 1.36D-02  0.00D+00 EMaxC= 1.00D-01 BMatC= 6.99D-02 BMatP= 1.67D-01
 IDIUse=3 WtCom= 8.64D-01 WtEn= 1.36D-01
 Coeff-Com:  0.159D-01 0.925D-01 0.363D+00 0.529D+00
 Coeff-En:   0.000D+00 0.000D+00 0.310D+00 0.690D+00
 Coeff:      0.137D-01 0.799D-01 0.356D+00 0.550D+00
 Gap=     0.141 Goal=   None    Shift=    0.000
 RMSDP=1.05D-03 MaxDP=6.47D-02 DE=-1.16D-01 OVMax= 6.77D-02

 Cycle   5  Pass 1  IDiag  1:
 RMSU=  5.50D-04    CP:  9.68D-01  2.82D-01  8.38D-01  6.32D-01
 E= -1339.41373418395     Delta-E=       -0.062634378005 Rises=F Damp=F
 DIIS: error= 3.60D-03 at cycle   5 NSaved=   5.
 NSaved= 5 IEnMin= 5 EnMin= -1339.41373418395     IErMin= 5 ErrMin= 3.60D-03
 ErrMax= 3.60D-03  0.00D+00 EMaxC= 1.00D-01 BMatC= 7.18D-03 BMatP= 6.99D-02
 IDIUse=3 WtCom= 9.64D-01 WtEn= 3.60D-02
 Coeff-Com: -0.529D-02 0.113D-01 0.167D+00 0.347D+00 0.480D+00
 Coeff-En:   0.000D+00 0.000D+00 0.000D+00 0.766D-01 0.923D+00
 Coeff:     -0.510D-02 0.109D-01 0.161D+00 0.337D+00 0.496D+00
 Gap=     0.141 Goal=   None    Shift=    0.000
 RMSDP=3.25D-04 MaxDP=1.80D-02 DE=-6.26D-02 OVMax= 2.19D-02

 Cycle   6  Pass 1  IDiag  1:
 RMSU=  1.58D-04    CP:  9.68D-01  2.75D-01  8.16D-01  6.96D-01  5.64D-01
 E= -1339.42022633188     Delta-E=       -0.006492147927 Rises=F Damp=F
 DIIS: error= 1.57D-03 at cycle   6 NSaved=   6.
 NSaved= 6 IEnMin= 6 EnMin= -1339.42022633188     IErMin= 6 ErrMin= 1.57D-03
 ErrMax= 1.57D-03  0.00D+00 EMaxC= 1.00D-01 BMatC= 6.24D-04 BMatP= 7.18D-03
 IDIUse=3 WtCom= 9.84D-01 WtEn= 1.57D-02
 Coeff-Com: -0.260D-02-0.206D-02 0.542D-01 0.134D+00 0.292D+00 0.525D+00
 Coeff-En:   0.000D+00 0.000D+00 0.000D+00 0.000D+00 0.451D-01 0.955D+00
 Coeff:     -0.256D-02-0.203D-02 0.533D-01 0.132D+00 0.288D+00 0.532D+00
 Gap=     0.140 Goal=   None    Shift=    0.000
 RMSDP=9.61D-05 MaxDP=4.55D-03 DE=-6.49D-03 OVMax= 8.03D-03

 Cycle   7  Pass 1  IDiag  1:
 RMSU=  5.29D-05    CP:  9.68D-01  2.74D-01  8.21D-01  6.89D-01  6.37D-01
                    CP:  5.90D-01
 E= -1339.42077030891     Delta-E=       -0.000543977031 Rises=F Damp=F
 DIIS: error= 4.42D-04 at cycle   7 NSaved=   7.
 NSaved= 7 IEnMin= 7 EnMin= -1339.42077030891     IErMin= 7 ErrMin= 4.42D-04
 ErrMax= 4.42D-04  0.00D+00 EMaxC= 1.00D-01 BMatC= 8.45D-05 BMatP= 6.24D-04
 IDIUse=3 WtCom= 9.96D-01 WtEn= 4.42D-03
 Coeff-Com: -0.480D-03-0.204D-02 0.111D-01 0.325D-01 0.105D+00 0.324D+00
 Coeff-Com:  0.529D+00
 Coeff-En:   0.000D+00 0.000D+00 0.000D+00 0.000D+00 0.000D+00 0.106D+00
 Coeff-En:   0.894D+00
 Coeff:     -0.478D-03-0.203D-02 0.110D-01 0.324D-01 0.105D+00 0.323D+00
 Coeff:      0.531D+00
 Gap=     0.140 Goal=   None    Shift=    0.000
 RMSDP=2.76D-05 MaxDP=1.46D-03 DE=-5.44D-04 OVMax= 2.33D-03

 Cycle   8  Pass 1  IDiag  1:
 RMSU=  1.80D-05    CP:  9.68D-01  2.74D-01  8.22D-01  6.89D-01  6.27D-01
                    CP:  6.53D-01  6.75D-01
 E= -1339.42084560566     Delta-E=       -0.000075296748 Rises=F Damp=F
 DIIS: error= 1.07D-04 at cycle   8 NSaved=   8.
 NSaved= 8 IEnMin= 8 EnMin= -1339.42084560566     IErMin= 8 ErrMin= 1.07D-04
 ErrMax= 1.07D-04  0.00D+00 EMaxC= 1.00D-01 BMatC= 7.74D-06 BMatP= 8.45D-05
 IDIUse=3 WtCom= 9.99D-01 WtEn= 1.07D-03
 Coeff-Com:  0.209D-04-0.940D-03 0.272D-02 0.821D-02 0.359D-01 0.141D+00
 Coeff-Com:  0.310D+00 0.504D+00
 Coeff-En:   0.000D+00 0.000D+00 0.000D+00 0.000D+00 0.000D+00 0.000D+00
 Coeff-En:   0.838D-02 0.992D+00
 Coeff:      0.209D-04-0.939D-03 0.272D-02 0.820D-02 0.358D-01 0.141D+00
 Coeff:      0.310D+00 0.504D+00
 Gap=     0.140 Goal=   None    Shift=    0.000
 RMSDP=8.90D-06 MaxDP=5.08D-04 DE=-7.53D-05 OVMax= 6.32D-04

 Cycle   9  Pass 1  IDiag  1:
 RMSU=  6.49D-06    CP:  9.68D-01  2.74D-01  8.21D-01  6.89D-01  6.27D-01
                    CP:  6.58D-01  6.89D-01  6.81D-01
 E= -1339.42085233681     Delta-E=       -0.000006731155 Rises=F Damp=F
 DIIS: error= 4.41D-05 at cycle   9 NSaved=   9.
 NSaved= 9 IEnMin= 9 EnMin= -1339.42085233681     IErMin= 9 ErrMin= 4.41D-05
 ErrMax= 4.41D-05  0.00D+00 EMaxC= 1.00D-01 BMatC= 6.80D-07 BMatP= 7.74D-06
 IDIUse=1 WtCom= 1.00D+00 WtEn= 0.00D+00
 Coeff-Com:  0.156D-03-0.286D-03 0.160D-03 0.228D-04 0.553D-02 0.325D-01
 Coeff-Com:  0.999D-01 0.273D+00 0.589D+00
 Coeff:      0.156D-03-0.286D-03 0.160D-03 0.228D-04 0.553D-02 0.325D-01
 Coeff:      0.999D-01 0.273D+00 0.589D+00
 Gap=     0.140 Goal=   None    Shift=    0.000
 RMSDP=2.89D-06 MaxDP=1.07D-04 DE=-6.73D-06 OVMax= 2.11D-04

 Cycle  10  Pass 1  IDiag  1:
 RMSU=  2.11D-06    CP:  9.68D-01  2.74D-01  8.21D-01  6.89D-01  6.27D-01
                    CP:  6.60D-01  6.95D-01  7.24D-01  7.68D-01
 E= -1339.42085299947     Delta-E=       -0.000000662656 Rises=F Damp=F
 DIIS: error= 9.80D-06 at cycle  10 NSaved=  10.
 NSaved=10 IEnMin=10 EnMin= -1339.42085299947     IErMin=10 ErrMin= 9.80D-06
 ErrMax= 9.80D-06  0.00D+00 EMaxC= 1.00D-01 BMatC= 5.33D-08 BMatP= 6.80D-07
 IDIUse=1 WtCom= 1.00D+00 WtEn= 0.00D+00
 Coeff-Com:  0.745D-04-0.903D-04-0.936D-04-0.649D-03-0.374D-03 0.257D-02
 Coeff-Com:  0.210D-01 0.835D-01 0.284D+00 0.610D+00
 Coeff:      0.745D-04-0.903D-04-0.936D-04-0.649D-03-0.374D-03 0.257D-02
 Coeff:      0.210D-01 0.835D-01 0.284D+00 0.610D+00
 Gap=     0.140 Goal=   None    Shift=    0.000
 RMSDP=9.80D-07 MaxDP=3.97D-05 DE=-6.63D-07 OVMax= 7.42D-05

 Cycle  11  Pass 1  IDiag  1:
 RMSU=  6.07D-07    CP:  9.68D-01  2.74D-01  8.21D-01  6.89D-01  6.27D-01
                    CP:  6.60D-01  6.99D-01  7.37D-01  7.97D-01  6.96D-01
 E= -1339.42085305300     Delta-E=       -0.000000053531 Rises=F Damp=F
 DIIS: error= 2.66D-06 at cycle  11 NSaved=  11.
 NSaved=11 IEnMin=11 EnMin= -1339.42085305300     IErMin=11 ErrMin= 2.66D-06
 ErrMax= 2.66D-06  0.00D+00 EMaxC= 1.00D-01 BMatC= 5.82D-09 BMatP= 5.33D-08
 IDIUse=1 WtCom= 1.00D+00 WtEn= 0.00D+00
 Coeff-Com:  0.228D-04-0.110D-04-0.466D-04-0.327D-03-0.796D-03-0.231D-02
 Coeff-Com:  0.610D-03 0.145D-01 0.835D-01 0.315D+00 0.590D+00
 Coeff:      0.228D-04-0.110D-04-0.466D-04-0.327D-03-0.796D-03-0.231D-02
 Coeff:      0.610D-03 0.145D-01 0.835D-01 0.315D+00 0.590D+00
 Gap=     0.140 Goal=   None    Shift=    0.000
 RMSDP=2.82D-07 MaxDP=1.58D-05 DE=-5.35D-08 OVMax= 1.97D-05

 Cycle  12  Pass 1  IDiag  1:
 RMSU=  1.66D-07    CP:  9.68D-01  2.74D-01  8.21D-01  6.89D-01  6.27D-01
                    CP:  6.60D-01  7.00D-01  7.37D-01  8.05D-01  7.50D-01
                    CP:  7.27D-01
 E= -1339.42085305880     Delta-E=       -0.000000005799 Rises=F Damp=F
 DIIS: error= 8.54D-07 at cycle  12 NSaved=  12.
 NSaved=12 IEnMin=12 EnMin= -1339.42085305880     IErMin=12 ErrMin= 8.54D-07
 ErrMax= 8.54D-07  0.00D+00 EMaxC= 1.00D-01 BMatC= 4.15D-10 BMatP= 5.82D-09
 IDIUse=1 WtCom= 1.00D+00 WtEn= 0.00D+00
 Coeff-Com:  0.442D-05-0.107D-05-0.697D-05-0.883D-04-0.326D-03-0.127D-02
 Coeff-Com: -0.114D-02 0.103D-02 0.191D-01 0.113D+00 0.291D+00 0.579D+00
 Coeff:      0.442D-05-0.107D-05-0.697D-05-0.883D-04-0.326D-03-0.127D-02
 Coeff:     -0.114D-02 0.103D-02 0.191D-01 0.113D+00 0.291D+00 0.579D+00
 Gap=     0.140 Goal=   None    Shift=    0.000
 RMSDP=8.30D-08 MaxDP=4.17D-06 DE=-5.80D-09 OVMax= 9.23D-06

 Cycle  13  Pass 1  IDiag  1:
 RMSU=  5.52D-08    CP:  9.68D-01  2.74D-01  8.21D-01  6.89D-01  6.27D-01
                    CP:  6.60D-01  7.00D-01  7.37D-01  8.08D-01  7.61D-01
                    CP:  7.25D-01  7.00D-01
 E= -1339.42085305920     Delta-E=       -0.000000000399 Rises=F Damp=F
 DIIS: error= 3.09D-07 at cycle  13 NSaved=  13.
 NSaved=13 IEnMin=13 EnMin= -1339.42085305920     IErMin=13 ErrMin= 3.09D-07
 ErrMax= 3.09D-07  0.00D+00 EMaxC= 1.00D-01 BMatC= 3.38D-11 BMatP= 4.15D-10
 IDIUse=1 WtCom= 1.00D+00 WtEn= 0.00D+00
 Coeff-Com:  0.705D-06 0.755D-08-0.877D-06-0.137D-04-0.875D-04-0.406D-03
 Coeff-Com: -0.624D-03-0.986D-03 0.279D-03 0.218D-01 0.729D-01 0.260D+00
 Coeff-Com:  0.648D+00
 Coeff:      0.705D-06 0.755D-08-0.877D-06-0.137D-04-0.875D-04-0.406D-03
 Coeff:     -0.624D-03-0.986D-03 0.279D-03 0.218D-01 0.729D-01 0.260D+00
 Coeff:      0.648D+00
 Gap=     0.140 Goal=   None    Shift=    0.000
 RMSDP=2.46D-08 MaxDP=1.61D-06 DE=-3.99D-10 OVMax= 1.65D-06

 Cycle  14  Pass 1  IDiag  1:
 RMSU=  1.71D-08    CP:  9.68D-01  2.74D-01  8.21D-01  6.89D-01  6.27D-01
                    CP:  6.60D-01  7.00D-01  7.38D-01  8.08D-01  7.62D-01
                    CP:  7.35D-01  7.23D-01  7.98D-01
 E= -1339.42085305922     Delta-E=       -0.000000000020 Rises=F Damp=F
 DIIS: error= 1.07D-07 at cycle  14 NSaved=  14.
 NSaved=14 IEnMin=14 EnMin= -1339.42085305922     IErMin=14 ErrMin= 1.07D-07
 ErrMax= 1.07D-07  0.00D+00 EMaxC= 1.00D-01 BMatC= 7.17D-12 BMatP= 3.38D-11
 IDIUse=1 WtCom= 1.00D+00 WtEn= 0.00D+00
 Coeff-Com: -0.998D-08 0.335D-06 0.384D-07-0.835D-06-0.266D-04-0.143D-03
 Coeff-Com: -0.282D-03-0.652D-03-0.142D-02 0.358D-02 0.179D-01 0.105D+00
 Coeff-Com:  0.390D+00 0.487D+00
 Coeff:     -0.998D-08 0.335D-06 0.384D-07-0.835D-06-0.266D-04-0.143D-03
 Coeff:     -0.282D-03-0.652D-03-0.142D-02 0.358D-02 0.179D-01 0.105D+00
 Coeff:      0.390D+00 0.487D+00
 Gap=     0.140 Goal=   None    Shift=    0.000
 RMSDP=8.49D-09 MaxDP=3.33D-07 DE=-1.96D-11 OVMax= 5.51D-07

 Error on total polarization charges =  0.01675
 SCF Done:  E(RTPSSh) =  -1339.42085306     A.U. after   14 cycles
            NFock= 14  Conv=0.85D-08     -V/T= 2.0706
 KE= 1.251138403598D+03 PE=-6.812171093834D+03 EE= 2.367975165809D+03
 Leave Link  502 at Sun Feb  8 16:58:32 2026, MaxMem= 16106127360 cpu:            1950.2 elap:              36.1
 (Enter /home/software/g16-shuai/g16/l801.exe)
 DoSCS=F DFT=T ScalE2(SS,OS)=  1.000000  1.000000
 Range of M.O.s used for correlation:     1   367
 NBasis=   367 NAE=    80 NBE=    80 NFC=     0 NFV=     0
 NROrb=    367 NOA=    80 NOB=    80 NVA=   287 NVB=   287

 **** Warning!!: The largest alpha MO coefficient is  0.12884139D+02

 Leave Link  801 at Sun Feb  8 16:58:32 2026, MaxMem= 16106127360 cpu:               0.9 elap:               0.0
 (Enter /home/software/g16-shuai/g16/l1101.exe)
 Using compressed storage, NAtomX=    33.
 Will process     34 centers per pass.
   1 Symmetry operations used in ECPInt.
 ECPInt:  NShTT=   14028 NPrTT=   51030 LenC2=   12720 LenP2D=   32483.
 LDataN:  DoStor=T MaxTD1= 9 Len=  602
 Number of processors reduced to  44 by ecpmxn.
 R6Disp: Adding Grimme-D3(BJ) dispersion energy 1st derivatives to the gradient.
 Leave Link 1101 at Sun Feb  8 16:58:33 2026, MaxMem= 16106127360 cpu:              54.0 elap:               1.1
 (Enter /home/software/g16-shuai/g16/l1102.exe)
 Symmetrizing basis deriv contribution to polar:
 IMax=3 JMax=2 DiffMx= 0.00D+00
 Leave Link 1102 at Sun Feb  8 16:58:33 2026, MaxMem= 16106127360 cpu:               1.8 elap:               0.1
 (Enter /home/software/g16-shuai/g16/l1110.exe)
 Forming Gx(P) for the SCF density, NAtomX=    33.
 Integral derivatives from FoFJK, PRISM(SPDF).
 Do as many integral derivatives as possible in FoFJK.
 G2DrvN: MDV=   16106123825.
 G2DrvN: will do    34 centers at a time, making    1 passes.
 Calling FoFCou, ICntrl=  3107 FMM=F I1Cent=   0 AccDes= 0.00D+00.
 FoFJK:  IHMeth= 1 ICntrl=    3107 DoSepK=F KAlg= 0 I1Cent=           0 FoldK=F
 IRaf=         0 NMat=       1 IRICut=       1 DoRegI=T DoRafI=F ISym2E= 0 IDoP0=0 IntGTp=1.
 FoFCou: FMM=F IPFlag=           0 FMFlag=      100000 FMFlg1=           0
         NFxFlg=           0 DoJE=F BraDBF=F KetDBF=F FulRan=T
         wScrn=  0.000000 ICntrl=      3107 IOpCl=  0 I1Cent=           0 NGrid=           0
         NMat0=    1 NMatS0=      1 NMatT0=    0 NMatD0=    1 NMtDS0=    0 NMtDT0=    0
 Symmetry not used in FoFCou.
 Defaulting to unpruned grid for atomic number  78.
 Defaulting to unpruned grid for atomic number  78.
 Defaulting to unpruned grid for atomic number  78.
 Defaulting to unpruned grid for atomic number  78.
 Defaulting to unpruned grid for atomic number  78.
 Defaulting to unpruned grid for atomic number  78.
 Defaulting to unpruned grid for atomic number  78.
 Defaulting to unpruned grid for atomic number  78.
 Defaulting to unpruned grid for atomic number  78.
 Defaulting to unpruned grid for atomic number  78.
 Defaulting to unpruned grid for atomic number  78.
 Defaulting to unpruned grid for atomic number  78.
 Defaulting to unpruned grid for atomic number  78.
 Defaulting to unpruned grid for atomic number  78.
 Defaulting to unpruned grid for atomic number  78.
 Defaulting to unpruned grid for atomic number  78.
 Defaulting to unpruned grid for atomic number  78.
 Defaulting to unpruned grid for atomic number  78.
 Defaulting to unpruned grid for atomic number  78.
 Defaulting to unpruned grid for atomic number  78.
 Defaulting to unpruned grid for atomic number  78.
 Defaulting to unpruned grid for atomic number  78.
 Defaulting to unpruned grid for atomic number  78.
 Defaulting to unpruned grid for atomic number  78.
 Defaulting to unpruned grid for atomic number  78.
 Defaulting to unpruned grid for atomic number  78.
 Defaulting to unpruned grid for atomic number  78.
 Defaulting to unpruned grid for atomic number  78.
 Defaulting to unpruned grid for atomic number  78.
 Defaulting to unpruned grid for atomic number  78.
 Defaulting to unpruned grid for atomic number  78.
 Defaulting to unpruned grid for atomic number  78.
 Defaulting to unpruned grid for atomic number  78.
 Defaulting to unpruned grid for atomic number  78.
 Defaulting to unpruned grid for atomic number  78.
 Defaulting to unpruned grid for atomic number  78.
 Defaulting to unpruned grid for atomic number  78.
 Defaulting to unpruned grid for atomic number  78.
 Defaulting to unpruned grid for atomic number  78.
 Defaulting to unpruned grid for atomic number  78.
 Defaulting to unpruned grid for atomic number  78.
 Defaulting to unpruned grid for atomic number  78.
 Defaulting to unpruned grid for atomic number  78.
 Defaulting to unpruned grid for atomic number  78.
 Defaulting to unpruned grid for atomic number  78.
 Defaulting to unpruned grid for atomic number  78.
 Defaulting to unpruned grid for atomic number  78.
 Defaulting to unpruned grid for atomic number  78.
 Defaulting to unpruned grid for atomic number  78.
 Defaulting to unpruned grid for atomic number  78.
 Defaulting to unpruned grid for atomic number  78.
 Defaulting to unpruned grid for atomic number  78.
 Defaulting to unpruned grid for atomic number  78.
 Defaulting to unpruned grid for atomic number  78.
 Defaulting to unpruned grid for atomic number  78.
 Defaulting to unpruned grid for atomic number  78.
 NEqPCM:  Using equilibrium solvation (IEInf=0, Eps=   8.9300, EpsInf=   2.0283)
 G2PCM: DoFxE=T DoFxN=T DoGrad=T DoDP/DQ/DG/TGxP=FFFF NFrqRd=   0 IEInf=0 SqF1=F DoCFld=F IF1Alg=4.
 GePol: Maximum number of non-zero 1st derivatives   =     239
 End of G2Drv F.D. properties file   721 does not exist.
 End of G2Drv F.D. properties file   722 does not exist.
 End of G2Drv F.D. properties file   788 does not exist.
 Leave Link 1110 at Sun Feb  8 16:59:47 2026, MaxMem= 16106127360 cpu:            4100.1 elap:              73.6
 (Enter /home/software/g16-shuai/g16/l1002.exe)
 Minotr:  Closed shell wavefunction.
          IDoAtm=111111111111111111111111111111111
 NEqPCM:  Using equilibrium solvation (IEInf=0, Eps=   8.9300, EpsInf=   2.0283)
          Direct CPHF calculation.
          Differentiating once with respect to electric field.
                with respect to dipole field.
          Differentiating once with respect to nuclear coordinates.
          Requested convergence is 1.0D-08 RMS, and 1.0D-07 maximum.
          Secondary convergence is 1.0D-12 RMS, and 1.0D-12 maximum.
          NewPWx=T KeepS1=F KeepF1=F KeepIn=T MapXYZ=F SortEE=F KeepMc=T.
 Defaulting to unpruned grid for atomic number  78.
         9996 words used for storage of precomputed grid.
 Two-electron integral symmetry not used.
          MDV=   16106127360 using IRadAn=       1.
          Solving linear equations simultaneously, MaxMat=     336.
 FoF2E skips out because all densities are zero.
 CalDSu exits because no D1Ps are significant.
 FoFJK:  IHMeth= 1 ICntrl=       0 DoSepK=F KAlg= 0 I1Cent=           0 FoldK=F
 IRaf= 850000000 NMat=      99 IRICut=     247 DoRegI=T DoRafI=T ISym2E= 0 IDoP0=3 IntGTp=3.
 Defaulting to unpruned grid for atomic number  78.
 Defaulting to unpruned grid for atomic number  78.
 Defaulting to unpruned grid for atomic number  78.
 Defaulting to unpruned grid for atomic number  78.
 Defaulting to unpruned grid for atomic number  78.
 Defaulting to unpruned grid for atomic number  78.
 Defaulting to unpruned grid for atomic number  78.
 Defaulting to unpruned grid for atomic number  78.
 Defaulting to unpruned grid for atomic number  78.
 Defaulting to unpruned grid for atomic number  78.
 Defaulting to unpruned grid for atomic number  78.
 Defaulting to unpruned grid for atomic number  78.
 Defaulting to unpruned grid for atomic number  78.
 Defaulting to unpruned grid for atomic number  78.
 Defaulting to unpruned grid for atomic number  78.
 Defaulting to unpruned grid for atomic number  78.
 Defaulting to unpruned grid for atomic number  78.
 Defaulting to unpruned grid for atomic number  78.
 Defaulting to unpruned grid for atomic number  78.
 Defaulting to unpruned grid for atomic number  78.
 Defaulting to unpruned grid for atomic number  78.
 Defaulting to unpruned grid for atomic number  78.
 Defaulting to unpruned grid for atomic number  78.
 Defaulting to unpruned grid for atomic number  78.
 Defaulting to unpruned grid for atomic number  78.
 Defaulting to unpruned grid for atomic number  78.
 Defaulting to unpruned grid for atomic number  78.
 Defaulting to unpruned grid for atomic number  78.
 Defaulting to unpruned grid for atomic number  78.
 Defaulting to unpruned grid for atomic number  78.
 Defaulting to unpruned grid for atomic number  78.
 Defaulting to unpruned grid for atomic number  78.
 Defaulting to unpruned grid for atomic number  78.
 Defaulting to unpruned grid for atomic number  78.
 Defaulting to unpruned grid for atomic number  78.
 Defaulting to unpruned grid for atomic number  78.
 Defaulting to unpruned grid for atomic number  78.
 Defaulting to unpruned grid for atomic number  78.
 Defaulting to unpruned grid for atomic number  78.
 Defaulting to unpruned grid for atomic number  78.
 Defaulting to unpruned grid for atomic number  78.
 Defaulting to unpruned grid for atomic number  78.
 Defaulting to unpruned grid for atomic number  78.
 Defaulting to unpruned grid for atomic number  78.
 Defaulting to unpruned grid for atomic number  78.
 Defaulting to unpruned grid for atomic number  78.
 Defaulting to unpruned grid for atomic number  78.
 Defaulting to unpruned grid for atomic number  78.
 Defaulting to unpruned grid for atomic number  78.
 Defaulting to unpruned grid for atomic number  78.
 Defaulting to unpruned grid for atomic number  78.
 Defaulting to unpruned grid for atomic number  78.
 Defaulting to unpruned grid for atomic number  78.
 Defaulting to unpruned grid for atomic number  78.
 Defaulting to unpruned grid for atomic number  78.
 Defaulting to unpruned grid for atomic number  78.
          There are   102 degrees of freedom in the 1st order CPHF.  IDoFFX=6 NUNeed=     3.
     99 vectors produced by pass  0 Test12= 2.30D-14 1.00D-09 XBig12= 4.83D+02 9.90D+00.
 AX will form    99 AO Fock derivatives at one time.
     99 vectors produced by pass  1 Test12= 2.30D-14 1.00D-09 XBig12= 1.21D+02 2.03D+00.
     99 vectors produced by pass  2 Test12= 2.30D-14 1.00D-09 XBig12= 4.96D+00 4.70D-01.
     99 vectors produced by pass  3 Test12= 2.30D-14 1.00D-09 XBig12= 2.48D-02 2.62D-02.
     99 vectors produced by pass  4 Test12= 2.30D-14 1.00D-09 XBig12= 8.28D-05 1.20D-03.
     80 vectors produced by pass  5 Test12= 2.30D-14 1.00D-09 XBig12= 8.35D-08 3.22D-05.
     17 vectors produced by pass  6 Test12= 2.30D-14 1.00D-09 XBig12= 5.86D-11 9.98D-07.
      3 vectors produced by pass  7 Test12= 2.30D-14 1.00D-09 XBig12= 3.76D-14 1.96D-08.
 InvSVY:  IOpt=1 It=  1 EMax= 1.78D-14
 Solved reduced A of dimension   595 with   102 vectors.
 FullF1:  Do perturbations      1 to       3.
 Isotropic polarizability for W=    0.000000      308.79 Bohr**3.
 End of Minotr F.D. properties file   721 does not exist.
 End of Minotr F.D. properties file   722 does not exist.
 End of Minotr F.D. properties file   788 does not exist.
 Leave Link 1002 at Sun Feb  8 17:02:07 2026, MaxMem= 16106127360 cpu:            7810.1 elap:             140.2
 (Enter /home/software/g16-shuai/g16/l601.exe)
 Copying SCF densities to generalized density rwf, IOpCl= 0 IROHF=0.

 **********************************************************************

            Population analysis using the SCF Density.

 **********************************************************************

 Alpha  occ. eigenvalues -- -101.27751 -14.33588 -14.33586 -14.33464 -14.33463
 Alpha  occ. eigenvalues --  -10.19023 -10.19022 -10.17501 -10.17500 -10.17318
 Alpha  occ. eigenvalues --  -10.17313 -10.17187 -10.17186 -10.16578 -10.16573
 Alpha  occ. eigenvalues --  -10.13880 -10.13877 -10.13586 -10.12895  -9.30033
 Alpha  occ. eigenvalues --   -7.05193  -7.04816  -7.04803  -3.87482  -2.13991
 Alpha  occ. eigenvalues --   -2.13893  -2.10668  -1.02019  -1.01919  -0.91845
 Alpha  occ. eigenvalues --   -0.91298  -0.82834  -0.77272  -0.76413  -0.72786
 Alpha  occ. eigenvalues --   -0.71535  -0.70719  -0.70280  -0.69182  -0.64236
 Alpha  occ. eigenvalues --   -0.61253  -0.60847  -0.58081  -0.56111  -0.54931
 Alpha  occ. eigenvalues --   -0.54683  -0.50329  -0.47796  -0.47029  -0.46875
 Alpha  occ. eigenvalues --   -0.46620  -0.46363  -0.44280  -0.43988  -0.43611
 Alpha  occ. eigenvalues --   -0.42539  -0.42225  -0.41261  -0.40757  -0.40339
 Alpha  occ. eigenvalues --   -0.39184  -0.38463  -0.37878  -0.36351  -0.36076
 Alpha  occ. eigenvalues --   -0.34769  -0.32292  -0.30922  -0.29885  -0.28679
 Alpha  occ. eigenvalues --   -0.28273  -0.27543  -0.26402  -0.25797  -0.23830
 Alpha  occ. eigenvalues --   -0.23264  -0.21729  -0.21286  -0.20698  -0.19771
 Alpha virt. eigenvalues --   -0.05786  -0.04291   0.00148   0.00440   0.00800
 Alpha virt. eigenvalues --    0.01179   0.04534   0.06287   0.06862   0.07141
 Alpha virt. eigenvalues --    0.07150   0.08352   0.08433   0.09897   0.10356
 Alpha virt. eigenvalues --    0.10501   0.11860   0.12003   0.13479   0.14398
 Alpha virt. eigenvalues --    0.14442   0.14843   0.14974   0.15532   0.15681
 Alpha virt. eigenvalues --    0.16634   0.17353   0.17985   0.19236   0.19845
 Alpha virt. eigenvalues --    0.20250   0.22622   0.23311   0.24245   0.26091
 Alpha virt. eigenvalues --    0.27188   0.28380   0.29136   0.30693   0.32295
 Alpha virt. eigenvalues --    0.33008   0.33761   0.35507   0.36104   0.36783
 Alpha virt. eigenvalues --    0.37607   0.38131   0.38343   0.39464   0.39723
 Alpha virt. eigenvalues --    0.41757   0.42665   0.43449   0.44012   0.44504
 Alpha virt. eigenvalues --    0.45191   0.45935   0.46449   0.46482   0.46836
 Alpha virt. eigenvalues --    0.48471   0.49518   0.49800   0.50231   0.50539
 Alpha virt. eigenvalues --    0.51305   0.53433   0.54032   0.54138   0.54670
 Alpha virt. eigenvalues --    0.55872   0.56440   0.57103   0.58729   0.59828
 Alpha virt. eigenvalues --    0.60284   0.61271   0.62937   0.63158   0.63230
 Alpha virt. eigenvalues --    0.63995   0.65045   0.65303   0.65311   0.65368
 Alpha virt. eigenvalues --    0.65703   0.66113   0.66897   0.67420   0.68308
 Alpha virt. eigenvalues --    0.68430   0.68521   0.69232   0.69313   0.70541
 Alpha virt. eigenvalues --    0.71130   0.71726   0.73084   0.73600   0.74494
 Alpha virt. eigenvalues --    0.75181   0.77697   0.77938   0.79092   0.79460
 Alpha virt. eigenvalues --    0.82181   0.82813   0.83763   0.84971   0.85374
 Alpha virt. eigenvalues --    0.85776   0.86682   0.88426   0.89562   0.90146
 Alpha virt. eigenvalues --    0.90535   0.91177   0.91769   0.92301   0.94984
 Alpha virt. eigenvalues --    0.97262   0.99908   1.01245   1.01903   1.04070
 Alpha virt. eigenvalues --    1.04878   1.04948   1.08114   1.10535   1.13312
 Alpha virt. eigenvalues --    1.15763   1.16040   1.16704   1.18302   1.19052
 Alpha virt. eigenvalues --    1.19374   1.20549   1.20841   1.21467   1.21713
 Alpha virt. eigenvalues --    1.22629   1.23598   1.24099   1.25845   1.30128
 Alpha virt. eigenvalues --    1.31066   1.33363   1.33986   1.34733   1.34811
 Alpha virt. eigenvalues --    1.35028   1.35893   1.36894   1.37800   1.42697
 Alpha virt. eigenvalues --    1.42762   1.43070   1.43187   1.44829   1.50455
 Alpha virt. eigenvalues --    1.52932   1.52951   1.53292   1.56650   1.56940
 Alpha virt. eigenvalues --    1.57892   1.57924   1.58562   1.61059   1.62867
 Alpha virt. eigenvalues --    1.63420   1.63962   1.66408   1.67221   1.67260
 Alpha virt. eigenvalues --    1.69646   1.70682   1.71502   1.71578   1.71992
 Alpha virt. eigenvalues --    1.74620   1.76751   1.77005   1.77623   1.78267
 Alpha virt. eigenvalues --    1.79182   1.79672   1.80014   1.80379   1.80964
 Alpha virt. eigenvalues --    1.81001   1.81719   1.82480   1.83603   1.87370
 Alpha virt. eigenvalues --    1.88382   1.89424   1.89906   1.90142   1.90757
 Alpha virt. eigenvalues --    1.93809   1.95664   1.95689   1.96075   1.97843
 Alpha virt. eigenvalues --    1.99814   2.02505   2.02507   2.03296   2.04604
 Alpha virt. eigenvalues --    2.04638   2.04833   2.05597   2.08092   2.09843
 Alpha virt. eigenvalues --    2.11446   2.11631   2.15086   2.15557   2.15836
 Alpha virt. eigenvalues --    2.17357   2.19236   2.19750   2.21829   2.23528
 Alpha virt. eigenvalues --    2.24683   2.28261   2.28700   2.29437   2.30396
 Alpha virt. eigenvalues --    2.30492   2.31415   2.31911   2.33340   2.36488
 Alpha virt. eigenvalues --    2.38934   2.39905   2.43553   2.44132   2.44344
 Alpha virt. eigenvalues --    2.45022   2.45407   2.48319   2.48574   2.55600
 Alpha virt. eigenvalues --    2.57022   2.60498   2.60656   2.62079   2.62180
 Alpha virt. eigenvalues --    2.65326   2.67387   2.71794   2.71846   2.72256
 Alpha virt. eigenvalues --    2.73122   2.75739   2.76209   2.76291   2.77347
 Alpha virt. eigenvalues --    2.78385   2.80812   2.80865   2.81850   2.83037
 Alpha virt. eigenvalues --    2.87553   2.88939   2.94251   2.94440   2.96535
 Alpha virt. eigenvalues --    2.97010   2.97925   2.98083   2.99814   3.00745
 Alpha virt. eigenvalues --    3.06017   3.16704   3.23125   3.25276   3.33326
 Alpha virt. eigenvalues --    3.37675   3.40488   3.48360   3.56163   3.65937
 Alpha virt. eigenvalues --   51.31585 282.81263
          Condensed to atoms (all electrons):
               1          2          3          4          5          6
     1  Pt  17.238237   0.200066  -0.071272  -0.071328   0.002208   0.002211
     2  C    0.200066   5.863517   0.251652   0.251840   0.043281   0.043299
     3  C   -0.071272   0.251652   5.112705   0.093807   0.297058  -0.135751
     4  C   -0.071328   0.251840   0.093807   5.112649  -0.135757   0.296966
     5  C    0.002208   0.043281   0.297058  -0.135757   5.154205   0.066383
     6  C    0.002211   0.043299  -0.135751   0.296966   0.066383   5.154145
     7  C    0.003244  -0.180851   0.137505   0.137523   0.252377   0.252449
     8  H   -0.000898   0.018432  -0.077213  -0.002617   0.458799   0.014205
     9  H   -0.000898   0.018438  -0.002619  -0.077250   0.014214   0.458842
    10  H   -0.000201   0.000046   0.012090   0.012095  -0.059090  -0.059081
    11  C    0.190984  -0.006946   0.004230  -0.079184   0.000037   0.005469
    12  C    0.003352  -0.000375   0.000005   0.008372   0.000002   0.000328
    13  H   -0.000471   0.000003  -0.000000  -0.000059  -0.000000  -0.000005
    14  C    0.190886  -0.007030  -0.079154   0.004226   0.005466   0.000037
    15  C    0.003352  -0.000376   0.008379   0.000005   0.000329   0.000003
    16  H   -0.000471   0.000003  -0.000059  -0.000000  -0.000005  -0.000000
    17  Cl   0.194249  -0.008655   0.000005   0.000005   0.000001   0.000001
    18  C   -0.001455  -0.000406  -0.000005   0.000175   0.000000   0.000006
    19  H    0.000163   0.000001   0.000000   0.000005   0.000000  -0.000000
    20  H   -0.001885   0.000459   0.000019  -0.000237  -0.000000  -0.000001
    21  H    0.000198   0.000001   0.000000   0.000005   0.000000  -0.000000
    22  C   -0.001484  -0.000405   0.000174  -0.000005   0.000006   0.000000
    23  H   -0.001810   0.000457  -0.000237   0.000019  -0.000001  -0.000000
    24  H    0.000177   0.000001   0.000005   0.000000  -0.000000   0.000000
    25  H    0.000183   0.000001   0.000005   0.000000  -0.000000   0.000000
    26  N   -0.033905  -0.111175   0.007736   0.344483  -0.000029  -0.060449
    27  N   -0.012521   0.002830   0.000000   0.004286   0.000001  -0.000188
    28  N   -0.012504   0.002835   0.004284   0.000001  -0.000189   0.000001
    29  N   -0.033914  -0.111210   0.344506   0.007735  -0.060455  -0.000027
    30  C    0.004717   0.012481  -0.053573   0.000034  -0.004695   0.000012
    31  C    0.004714   0.012470   0.000034  -0.053550   0.000012  -0.004690
    32  H   -0.000694   0.000055  -0.007213  -0.000007   0.002875   0.000001
    33  H   -0.000694   0.000054  -0.000007  -0.007204   0.000001   0.002872
               7          8          9         10         11         12
     1  Pt   0.003244  -0.000898  -0.000898  -0.000201   0.190984   0.003352
     2  C   -0.180851   0.018432   0.018438   0.000046  -0.006946  -0.000375
     3  C    0.137505  -0.077213  -0.002619   0.012090   0.004230   0.000005
     4  C    0.137523  -0.002617  -0.077250   0.012095  -0.079184   0.008372
     5  C    0.252377   0.458799   0.014214  -0.059090   0.000037   0.000002
     6  C    0.252449   0.014205   0.458842  -0.059081   0.005469   0.000328
     7  C    5.142502  -0.072518  -0.072540   0.434061   0.000115  -0.000017
     8  H   -0.072518   0.670565  -0.000156  -0.010653   0.000001   0.000000
     9  H   -0.072540  -0.000156   0.670630  -0.010661  -0.000363   0.000049
    10  H    0.434061  -0.010653  -0.010661   0.656912   0.000006  -0.000000
    11  C    0.000115   0.000001  -0.000363   0.000006   5.228042  -0.093388
    12  C   -0.000017   0.000000   0.000049  -0.000000  -0.093388   4.842383
    13  H   -0.000000  -0.000000   0.000007   0.000000   0.005980   0.427024
    14  C    0.000115  -0.000363   0.000001   0.000006  -0.028403  -0.000015
    15  C   -0.000017   0.000049   0.000000  -0.000000  -0.000015  -0.000000
    16  H   -0.000000   0.000007  -0.000000   0.000000   0.000000   0.000000
    17  Cl  -0.000000   0.000000   0.000000   0.000000   0.005338  -0.000035
    18  C   -0.000000   0.000000   0.000000   0.000000  -0.029799  -0.039332
    19  H    0.000000   0.000000   0.000000  -0.000000   0.001470  -0.004119
    20  H    0.000000   0.000000  -0.000000  -0.000000  -0.020526   0.003591
    21  H    0.000000   0.000000   0.000000  -0.000000   0.001349  -0.004054
    22  C   -0.000000   0.000000   0.000000   0.000000   0.000008  -0.000000
    23  H    0.000000  -0.000000   0.000000  -0.000000   0.000066   0.000000
    24  H    0.000000   0.000000   0.000000  -0.000000  -0.000000  -0.000000
    25  H    0.000000   0.000000   0.000000  -0.000000  -0.000000  -0.000000
    26  N    0.006284   0.000009  -0.009661  -0.000131   0.371920  -0.065486
    27  N    0.000002   0.000000  -0.000006  -0.000000   0.417943   0.372515
    28  N    0.000002  -0.000006   0.000000  -0.000000   0.000063   0.000000
    29  N    0.006285  -0.009660   0.000009  -0.000132   0.000518   0.000000
    30  C    0.000181   0.002334  -0.000000  -0.000012  -0.000050  -0.000000
    31  C    0.000180  -0.000000   0.002335  -0.000012  -0.086523   0.521547
    32  H    0.000109   0.001576  -0.000000   0.000006   0.000001   0.000000
    33  H    0.000109  -0.000000   0.001575   0.000006   0.004899  -0.041845
              13         14         15         16         17         18
     1  Pt  -0.000471   0.190886   0.003352  -0.000471   0.194249  -0.001455
     2  C    0.000003  -0.007030  -0.000376   0.000003  -0.008655  -0.000406
     3  C   -0.000000  -0.079154   0.008379  -0.000059   0.000005  -0.000005
     4  C   -0.000059   0.004226   0.000005  -0.000000   0.000005   0.000175
     5  C   -0.000000   0.005466   0.000329  -0.000005   0.000001   0.000000
     6  C   -0.000005   0.000037   0.000003  -0.000000   0.000001   0.000006
     7  C   -0.000000   0.000115  -0.000017  -0.000000  -0.000000  -0.000000
     8  H   -0.000000  -0.000363   0.000049   0.000007   0.000000   0.000000
     9  H    0.000007   0.000001   0.000000  -0.000000   0.000000   0.000000
    10  H    0.000000   0.000006  -0.000000   0.000000   0.000000   0.000000
    11  C    0.005980  -0.028403  -0.000015   0.000000   0.005338  -0.029799
    12  C    0.427024  -0.000015  -0.000000   0.000000  -0.000035  -0.039332
    13  H    0.574276   0.000000   0.000000  -0.000000   0.000001  -0.001389
    14  C    0.000000   5.228332  -0.093379   0.005980   0.005321   0.000008
    15  C    0.000000  -0.093379   4.842388   0.427038  -0.000034  -0.000000
    16  H   -0.000000   0.005980   0.427038   0.574275   0.000001   0.000000
    17  Cl   0.000001   0.005321  -0.000034   0.000001  17.157880  -0.025247
    18  C   -0.001389   0.000008  -0.000000   0.000000  -0.025247   4.521405
    19  H    0.000753  -0.000000  -0.000000  -0.000000   0.000326   0.397111
    20  H    0.000247   0.000066   0.000000  -0.000000   0.059791   0.357132
    21  H    0.000728  -0.000000  -0.000000  -0.000000   0.000329   0.397145
    22  C    0.000000  -0.029836  -0.039326  -0.001392  -0.025039  -0.000003
    23  H   -0.000000  -0.020525   0.003595   0.000246   0.059507   0.000033
    24  H   -0.000000   0.001436  -0.004094   0.000743   0.000322   0.000000
    25  H   -0.000000   0.001390  -0.004071   0.000737   0.000325   0.000000
    26  N    0.003873   0.000518   0.000000   0.000000   0.000140   0.005780
    27  N   -0.029511   0.000063   0.000000  -0.000000  -0.000346   0.295315
    28  N   -0.000000   0.417874   0.372501  -0.029500  -0.000342   0.000000
    29  N    0.000000   0.371982  -0.065493   0.003873   0.000139   0.000000
    30  C    0.000000  -0.086530   0.521437  -0.042900  -0.000006  -0.000000
    31  C   -0.042883  -0.000050  -0.000000   0.000000  -0.000006   0.005734
    32  H   -0.000000   0.004900  -0.041866  -0.002633  -0.000000  -0.000000
    33  H   -0.002635   0.000001   0.000000  -0.000000  -0.000000  -0.000103
              19         20         21         22         23         24
     1  Pt   0.000163  -0.001885   0.000198  -0.001484  -0.001810   0.000177
     2  C    0.000001   0.000459   0.000001  -0.000405   0.000457   0.000001
     3  C    0.000000   0.000019   0.000000   0.000174  -0.000237   0.000005
     4  C    0.000005  -0.000237   0.000005  -0.000005   0.000019   0.000000
     5  C    0.000000  -0.000000   0.000000   0.000006  -0.000001  -0.000000
     6  C   -0.000000  -0.000001  -0.000000   0.000000  -0.000000   0.000000
     7  C    0.000000   0.000000   0.000000  -0.000000   0.000000   0.000000
     8  H    0.000000   0.000000   0.000000   0.000000  -0.000000   0.000000
     9  H    0.000000  -0.000000   0.000000   0.000000   0.000000   0.000000
    10  H   -0.000000  -0.000000  -0.000000   0.000000  -0.000000  -0.000000
    11  C    0.001470  -0.020526   0.001349   0.000008   0.000066  -0.000000
    12  C   -0.004119   0.003591  -0.004054  -0.000000   0.000000  -0.000000
    13  H    0.000753   0.000247   0.000728   0.000000  -0.000000  -0.000000
    14  C   -0.000000   0.000066  -0.000000  -0.029836  -0.020525   0.001436
    15  C   -0.000000   0.000000  -0.000000  -0.039326   0.003595  -0.004094
    16  H   -0.000000  -0.000000  -0.000000  -0.001392   0.000246   0.000743
    17  Cl   0.000326   0.059791   0.000329  -0.025039   0.059507   0.000322
    18  C    0.397111   0.357132   0.397145  -0.000003   0.000033   0.000000
    19  H    0.604593  -0.012365  -0.025297   0.000000  -0.000001  -0.000000
    20  H   -0.012365   0.568705  -0.012367   0.000033  -0.000154  -0.000001
    21  H   -0.025297  -0.012367   0.604532   0.000000  -0.000001   0.000000
    22  C    0.000000   0.000033   0.000000   4.521046   0.357310   0.397190
    23  H   -0.000001  -0.000154  -0.000001   0.357310   0.568603  -0.012412
    24  H   -0.000000  -0.000001   0.000000   0.397190  -0.012412   0.604515
    25  H    0.000000  -0.000001  -0.000000   0.397127  -0.012379  -0.025291
    26  N   -0.000191   0.000358  -0.000187   0.000000  -0.000000   0.000000
    27  N   -0.022726  -0.002470  -0.022779   0.000000  -0.000001   0.000000
    28  N    0.000000  -0.000001   0.000000   0.295351  -0.002481  -0.022752
    29  N    0.000000  -0.000000   0.000000   0.005780   0.000358  -0.000189
    30  C   -0.000000   0.000000  -0.000000   0.005732  -0.000506   0.000541
    31  C    0.000545  -0.000507   0.000531  -0.000000   0.000000  -0.000000
    32  H    0.000000   0.000000   0.000000  -0.000103   0.000010  -0.000003
    33  H   -0.000003   0.000010  -0.000003  -0.000000   0.000000   0.000000
              25         26         27         28         29         30
     1  Pt   0.000183  -0.033905  -0.012521  -0.012504  -0.033914   0.004717
     2  C    0.000001  -0.111175   0.002830   0.002835  -0.111210   0.012481
     3  C    0.000005   0.007736   0.000000   0.004284   0.344506  -0.053573
     4  C    0.000000   0.344483   0.004286   0.000001   0.007735   0.000034
     5  C   -0.000000  -0.000029   0.000001  -0.000189  -0.060455  -0.004695
     6  C    0.000000  -0.060449  -0.000188   0.000001  -0.000027   0.000012
     7  C    0.000000   0.006284   0.000002   0.000002   0.006285   0.000181
     8  H    0.000000   0.000009   0.000000  -0.000006  -0.009660   0.002334
     9  H    0.000000  -0.009661  -0.000006   0.000000   0.000009  -0.000000
    10  H   -0.000000  -0.000131  -0.000000  -0.000000  -0.000132  -0.000012
    11  C   -0.000000   0.371920   0.417943   0.000063   0.000518  -0.000050
    12  C   -0.000000  -0.065486   0.372515   0.000000   0.000000  -0.000000
    13  H   -0.000000   0.003873  -0.029511  -0.000000   0.000000   0.000000
    14  C    0.001390   0.000518   0.000063   0.417874   0.371982  -0.086530
    15  C   -0.004071   0.000000   0.000000   0.372501  -0.065493   0.521437
    16  H    0.000737   0.000000  -0.000000  -0.029500   0.003873  -0.042900
    17  Cl   0.000325   0.000140  -0.000346  -0.000342   0.000139  -0.000006
    18  C    0.000000   0.005780   0.295315   0.000000   0.000000  -0.000000
    19  H    0.000000  -0.000191  -0.022726   0.000000   0.000000  -0.000000
    20  H   -0.000001   0.000358  -0.002470  -0.000001  -0.000000   0.000000
    21  H   -0.000000  -0.000187  -0.022779   0.000000   0.000000  -0.000000
    22  C    0.397127   0.000000   0.000000   0.295351   0.005780   0.005732
    23  H   -0.012379  -0.000000  -0.000001  -0.002481   0.000358  -0.000506
    24  H   -0.025291   0.000000   0.000000  -0.022752  -0.000189   0.000541
    25  H    0.604527   0.000000   0.000000  -0.022755  -0.000189   0.000533
    26  N    0.000000   6.526109  -0.073621  -0.000000  -0.000033   0.000002
    27  N    0.000000  -0.073621   6.422987  -0.000000  -0.000000   0.000000
    28  N   -0.022755  -0.000000  -0.000000   6.423046  -0.073633  -0.060359
    29  N   -0.000189  -0.000033  -0.000000  -0.073633   6.526002   0.358666
    30  C    0.000533   0.000002   0.000000  -0.060359   0.358666   4.838371
    31  C   -0.000000   0.358620  -0.060365   0.000000   0.000002  -0.000000
    32  H   -0.000003  -0.000000   0.000000   0.003646  -0.025616   0.428250
    33  H    0.000000  -0.025611   0.003646   0.000000  -0.000000   0.000000
              31         32         33
     1  Pt   0.004714  -0.000694  -0.000694
     2  C    0.012470   0.000055   0.000054
     3  C    0.000034  -0.007213  -0.000007
     4  C   -0.053550  -0.000007  -0.007204
     5  C    0.000012   0.002875   0.000001
     6  C   -0.004690   0.000001   0.002872
     7  C    0.000180   0.000109   0.000109
     8  H   -0.000000   0.001576  -0.000000
     9  H    0.002335  -0.000000   0.001575
    10  H   -0.000012   0.000006   0.000006
    11  C   -0.086523   0.000001   0.004899
    12  C    0.521547   0.000000  -0.041845
    13  H   -0.042883  -0.000000  -0.002635
    14  C   -0.000050   0.004900   0.000001
    15  C   -0.000000  -0.041866   0.000000
    16  H    0.000000  -0.002633  -0.000000
    17  Cl  -0.000006  -0.000000  -0.000000
    18  C    0.005734  -0.000000  -0.000103
    19  H    0.000545   0.000000  -0.000003
    20  H   -0.000507   0.000000   0.000010
    21  H    0.000531   0.000000  -0.000003
    22  C   -0.000000  -0.000103  -0.000000
    23  H    0.000000   0.000010   0.000000
    24  H   -0.000000  -0.000003   0.000000
    25  H   -0.000000  -0.000003   0.000000
    26  N    0.358620  -0.000000  -0.025611
    27  N   -0.060365   0.000000   0.003646
    28  N    0.000000   0.003646   0.000000
    29  N    0.000002  -0.025616  -0.000000
    30  C   -0.000000   0.428250   0.000000
    31  C    4.838240   0.000000   0.428213
    32  H    0.000000   0.566873  -0.000000
    33  H    0.428213  -0.000000   0.566874
 Mulliken charges:
               1
     1  Pt   0.207463
     2  C   -0.294793
     3  C    0.152901
     4  C    0.152970
     5  C   -0.037035
     6  C   -0.037035
     7  C   -0.047101
     8  H    0.008109
     9  H    0.008056
    10  H    0.024743
    11  C    0.106758
    12  C    0.069496
    13  H    0.064061
    14  C    0.106676
    15  C    0.069597
    16  H    0.064058
    17  Cl  -0.423971
    18  C    0.117894
    19  H    0.059736
    20  H    0.060102
    21  H    0.059868
    22  C    0.117835
    23  H    0.060304
    24  H    0.059812
    25  H    0.059859
    26  N   -0.245351
    27  N   -0.295056
    28  N   -0.295080
    29  N   -0.245303
    30  C    0.075340
    31  C    0.075409
    32  H    0.069836
    33  H    0.069842
 Sum of Mulliken charges =  -0.00000
 Mulliken charges with hydrogens summed into heavy atoms:
               1
     1  Pt   0.207463
     2  C   -0.294793
     3  C    0.152901
     4  C    0.152970
     5  C   -0.028926
     6  C   -0.028979
     7  C   -0.022358
    11  C    0.106758
    12  C    0.133557
    14  C    0.106676
    15  C    0.133655
    17  Cl  -0.423971
    18  C    0.297600
    22  C    0.297809
    26  N   -0.245351
    27  N   -0.295056
    28  N   -0.295080
    29  N   -0.245303
    30  C    0.145176
    31  C    0.145252
 APT charges:
               1
     1  Pt  -0.069579
     2  C    0.050032
     3  C    0.391843
     4  C    0.392046
     5  C   -0.060585
     6  C   -0.060755
     7  C   -0.154377
     8  H    0.038120
     9  H    0.036395
    10  H    0.023902
    11  C    0.575477
    12  C   -0.109757
    13  H    0.110622
    14  C    0.575409
    15  C   -0.109522
    16  H    0.110509
    17  Cl  -0.823873
    18  C    0.341370
    19  H   -0.024252
    20  H    0.121282
    21  H   -0.024673
    22  C    0.342157
    23  H    0.120647
    24  H   -0.024355
    25  H   -0.024530
    26  N   -0.525860
    27  N   -0.511260
    28  N   -0.511198
    29  N   -0.525752
    30  C    0.043208
    31  C    0.043715
    32  H    0.121065
    33  H    0.122530
 Sum of APT charges =  -0.00000
 APT charges with hydrogens summed into heavy atoms:
               1
     1  Pt  -0.069579
     2  C    0.050032
     3  C    0.391843
     4  C    0.392046
     5  C   -0.022465
     6  C   -0.024360
     7  C   -0.130475
    11  C    0.575477
    12  C    0.000865
    14  C    0.575409
    15  C    0.000987
    17  Cl  -0.823873
    18  C    0.413727
    22  C    0.413919
    26  N   -0.525860
    27  N   -0.511260
    28  N   -0.511198
    29  N   -0.525752
    30  C    0.164273
    31  C    0.166245
 Electronic spatial extent (au):  <R**2>=           6531.9761
 Charge=             -0.0000 electrons
 Dipole moment (field-independent basis, Debye):
    X=              0.0421    Y=              5.7720    Z=              0.0173  Tot=              5.7722
 Quadrupole moment (field-independent basis, Debye-Ang):
   XX=            -77.5257   YY=           -135.5329   ZZ=           -146.9894
   XY=              2.3527   XZ=              1.0413   YZ=              0.1786
 Traceless Quadrupole moment (field-independent basis, Debye-Ang):
   XX=             42.4903   YY=            -15.5170   ZZ=            -26.9734
   XY=              2.3527   XZ=              1.0413   YZ=              0.1786
 Octapole moment (field-independent basis, Debye-Ang**2):
  XXX=           -115.2540  YYY=            -59.4669  ZZZ=              1.9083  XYY=            -65.9818
  XXY=            -53.1216  XXZ=              0.9821  XZZ=            -72.5095  YZZ=            -66.2716
  YYZ=              1.6585  XYZ=              0.3768
 Hexadecapole moment (field-independent basis, Debye-Ang**3):
 XXXX=          -3737.2499 YYYY=          -3418.4918 ZZZZ=           -177.1943 XXXY=            -76.8471
 XXXZ=            -14.4650 YYYX=            -28.6331 YYYZ=             -9.9345 ZZZX=            -37.0573
 ZZZY=            -14.1769 XXYY=          -1171.2506 XXZZ=           -921.1178 YYZZ=           -676.1118
 XXYZ=             -1.0760 YYXZ=             -6.2307 ZZXY=            -30.4149
 N-N= 1.853636671368D+03 E-N=-6.812171086062D+03  KE= 1.251138403598D+03
  Exact polarizability:     406.708      -0.340     371.981       3.973       2.174     147.676
 Approx polarizability:     507.304      -0.132     500.883       4.792       2.858     196.186
 No NMR shielding tensors so no spin-rotation constants.
 Leave Link  601 at Sun Feb  8 17:02:07 2026, MaxMem= 16106127360 cpu:               9.5 elap:               0.2
 (Enter /home/software/g16-shuai/g16/l701.exe)
 ... and contract with generalized density number  0.
 Compute integral second derivatives.
[...]
 61,0.00200533,-0.00086192,0.00124470,-0.00000568,-0.00055219,-0.001028
 66,-0.00000886,0.64254285,-0.01010169,0.00850643,-0.00014114,0.0007836
 3,-0.00110643,0.00000821,0.00586856,-0.00619092,0.00002102,0.00009093,
 -0.00005146,0.00000162,-0.00309113,-0.00003147,-0.00005902,-0.00018329
 ,0.00003656,-0.00000398,0.00022947,-0.00069017,-0.00000353,0.00007536,
 0.00029503,0.00001282,-0.00008717,-0.00000155,-0.00000232,-0.00027302,
 -0.00017542,-0.00000637,0.00481732,-0.00205987,0.00006464,0.00011832,-
 0.00048067,-0.00000399,0.00009566,0.00011545,0.00000073,-0.07253016,-0
 .15207653,-0.00185656,0.08374759,-0.19027703,0.00013901,-0.00765826,0.
 00970618,-0.00001089,0.00004731,0.00012814,0.00001916,-0.00010666,0.00
 005992,0.00000079,0.00000245,0.00000292,-0.00000621,0.00000416,0.00002
 703,0.00000044,0.00000217,0.00000328,0.00000646,-0.01871225,-0.2233357
 1,-0.00156181,-0.00602764,-0.02427863,-0.00028839,-0.00322288,-0.02201
 666,0.00010492,-0.00319921,-0.02161129,-0.00066154,-0.00012305,-0.0000
 8191,-0.00000592,0.00105769,0.00129854,0.00003192,0.05692523,0.7832723
 3,-0.00028671,-0.00013140,0.00393947,-0.00004508,-0.00002913,0.0002945
 2,0.00007862,-0.00004415,0.00246224,0.00004016,0.00000417,-0.00006669,
 -0.00004536,0.00000434,0.00063049,-0.00001202,-0.00002277,0.00004940,-
 0.00001598,-0.00000189,-0.00023201,0.00000318,0.00000050,-0.00013378,-
 0.00000310,-0.00000204,0.00006828,-0.00000168,-0.00000301,-0.00008340,
 -0.00001091,0.00001617,-0.00073697,-0.00001610,-0.00000659,0.00000446,
 -0.00000199,-0.00000137,0.00010399,-0.00416235,-0.00211792,-0.06225809
 ,-0.00138318,-0.00017530,-0.06049194,-0.00024365,0.00050432,-0.0026979
 0,0.00001634,0.00000708,-0.00009676,0.00000094,-0.00000604,-0.00001727
 ,-0.00000034,0.00000420,0.00000373,0.00000177,-0.00000055,-0.00001711,
 -0.00000196,-0.00000204,0.00000445,-0.00082525,-0.00159598,-0.06472568
 ,0.00014393,0.00041200,-0.00150645,0.00186328,0.02712057,0.00652740,-0
 .00222714,-0.02837705,0.00607218,-0.00001657,0.00001895,0.00004112,0.0
 0001088,0.00000226,-0.00050238,0.00800654,0.00628508,0.14677646,-0.006
 74371,0.01986453,0.00003998,-0.06855482,-0.02140504,-0.00139993,-0.191
 23885,-0.05686847,-0.00287176,0.00107254,0.00672939,-0.00001705,0.0030
 5710,-0.00967634,-0.00006682,-0.00193972,-0.00358619,-0.00005829,0.000
 66553,0.00375588,-0.00003098,0.00001716,0.00076934,0.00005134,-0.00012
 242,-0.00013874,0.00001325,0.00035952,0.00012708,-0.00000616,-0.000758
 39,-0.00398492,-0.00003984,-0.00011753,0.00098877,0.00000969,-0.000017
 80,0.00008061,0.00000025,-0.12128988,0.04955779,-0.00031550,-0.0726619
 9,-0.06254300,-0.00187223,0.00100445,-0.00340298,-0.00010204,-0.000098
 40,0.00084425,-0.00001703,-0.00005807,-0.00010968,-0.00000199,-0.00000
 985,0.00005472,0.00000222,-0.00003198,0.00002750,-0.00000025,-0.000009
 90,0.00005469,-0.00000121,-0.00385267,-0.00081895,-0.00015949,-0.00016
 141,0.00017300,-0.00000054,0.00001337,-0.00013196,-0.00053047,-0.00001
 752,-0.00016147,0.00053029,-0.00312361,-0.00070174,-0.00005496,-0.0008
 8015,0.00013671,-0.00001204,-0.02036121,-0.02160124,-0.00057301,0.7748
 7190,0.02252831,-0.00824462,0.00028060,-0.00484696,0.00730798,-0.00005
 632,-0.06100387,-0.16537729,-0.00223201,0.00790885,0.00165003,0.000076
 77,-0.03968965,-0.02260202,-0.00086579,-0.00236292,-0.00453532,-0.0000
 7943,0.00445987,-0.00362165,-0.00003129,0.00043041,0.00227789,0.000058
 35,-0.00022021,0.00023689,0.00001165,-0.00174698,-0.00080015,-0.000050
 96,-0.00156660,-0.00140162,-0.00002351,0.00034192,0.00140685,0.0000182
 9,-0.00000200,0.00001631,-0.00000023,0.02411891,-0.24097196,-0.0010914
 9,-0.01392548,-0.00943288,-0.00039432,-0.00048499,-0.00530297,-0.00009
 510,0.00043759,-0.00056109,-0.00001470,-0.00001405,0.00002859,-0.00000
 006,0.00002911,0.00000960,0.00001507,-0.00015906,0.00001502,-0.0000012
 9,0.00002947,0.00000978,-0.00001426,-0.00591201,0.00440202,-0.00012322
 ,-0.00041992,0.00029978,-0.00000222,-0.00002457,-0.00285365,0.00002590
 ,-0.00003040,-0.00287353,-0.00007344,0.00078065,0.00164079,0.00003242,
 -0.00123165,-0.00006348,-0.00001886,-0.05904498,-0.07722194,-0.0016505
 6,0.07124204,0.65294049,0.00002052,0.00020196,0.00366095,-0.00120008,-
 0.00027915,0.00544694,-0.00282817,-0.00206999,-0.04687734,-0.00001384,
 0.00004852,0.00594709,-0.00040791,-0.00044067,0.00131053,-0.00004077,-
 0.00007759,-0.00103966,-0.00001387,-0.00005065,0.00566362,0.00005320,0
 .00006700,-0.00296051,0.00001061,0.00001029,-0.00087743,-0.00002775,-0
 .00001655,0.00087425,-0.00000695,-0.00006954,-0.00062950,0.00000135,0.
 00002643,0.00002183,-0.00000127,0.00000056,0.00006775,-0.00053209,-0.0
 0077973,-0.07412471,-0.00146107,-0.00113025,0.01390348,-0.00006703,-0.
 00014758,0.00514140,-0.00000466,0.00000992,0.00036383,-0.00000041,-0.0
 0000122,-0.00004252,0.00000061,0.00000454,0.00000298,-0.00000197,0.000
 00076,0.00000081,-0.00000050,-0.00000260,0.00000271,-0.00021886,-0.000
 02186,0.00636008,0.00000042,0.00000769,-0.00018087,-0.00063162,-0.0009
 7273,-0.00029854,0.00064240,0.00092388,-0.00024753,-0.00003991,0.00000
 135,0.00008212,-0.00002500,0.00000200,0.00004089,-0.00089749,-0.001093
 52,0.00734434,0.01073165,0.00602853,0.12847929,-0.00232519,-0.00220282
 ,-0.00009983,0.00505375,0.00325947,0.00008475,-0.03037927,-0.00593184,
 -0.00044046,-0.00361448,-0.00093412,-0.00007997,0.00362708,0.00157633,
 0.00006646,0.00088090,0.00227436,0.00004356,0.00067209,-0.00003924,0.0
 0001213,0.00003984,0.00004359,0.00001958,0.00010174,-0.00002083,0.0000
 0155,0.00030879,0.00028085,0.00000865,0.00151558,0.00227165,0.00004647
 ,-0.00004979,-0.00092704,-0.00001098,-0.00003477,-0.00007212,-0.000001
 38,-0.02944612,0.06494784,-0.00004968,-0.15843141,-0.13368210,-0.00263
 239,-0.00019535,-0.02114959,-0.00020318,-0.00018660,-0.00027638,0.0000
 0600,0.00005440,-0.00021998,-0.00000059,-0.00002111,0.00004036,-0.0000
 2265,0.00003940,-0.00000853,0.00000004,-0.00002154,0.00004038,0.000023
 48,-0.00748785,0.00299283,-0.00012097,0.00050573,0.00149604,0.00001787
 ,-0.00001196,-0.00150178,0.00017147,-0.00000985,-0.00150669,-0.0001917
 2,0.00113669,-0.00157926,0.00000414,-0.00004106,0.00005994,-0.00000315
 ,0.00666046,-0.00219897,-0.00014132,-0.28251663,0.02775779,-0.00327297
 ,0.59948932,-0.00152881,-0.00299533,-0.00006129,-0.00296998,-0.0043044
 7,-0.00010803,-0.01977630,0.01608177,-0.00005788,-0.00120942,0.0013057
 1,-0.00001682,0.00031844,0.00074335,-0.00005832,0.00007939,0.00006911,
 0.00000279,0.00034903,-0.00001972,0.00000480,0.00009757,-0.00044760,-0
 .00002851,0.00000526,-0.00001455,0.00000108,-0.00003076,-0.00002804,-0
 .00000092,0.00118894,0.00040737,0.00002811,0.00010523,0.00004888,0.000
 00108,0.00001084,0.00003524,0.00000061,0.01970343,-0.03245673,-0.00010
 059,-0.13956139,-0.38038630,-0.00495471,0.00284619,0.00617289,0.000087
 14,0.00034760,0.00030743,0.00000871,0.00000077,-0.00002933,0.00000022,
 0.00000949,0.00001582,-0.00000185,-0.00004881,0.00000126,-0.00000041,0
 .00000935,0.00001603,0.00000258,0.00446405,0.00338362,0.00007653,-0.00
 076468,-0.00129975,-0.00002941,-0.00062064,-0.00083005,0.00047323,-0.0
 0061050,-0.00083299,-0.00050381,0.00006309,-0.00052145,-0.00000280,-0.
 00019887,0.00034220,-0.00000135,0.04648809,-0.07927329,-0.00010853,0.0
 3244462,-0.13053303,-0.00021757,-0.04772964,0.92810250,-0.00006392,-0.
 00006712,0.00107696,0.00003563,-0.00001435,0.00127439,-0.00062838,0.00
 011843,-0.00510601,-0.00008318,-0.00001231,0.00113518,0.00007193,-0.00
 003499,0.00010480,0.00001540,0.00003327,-0.00004377,0.00000957,-0.0000
 0176,0.00009506,-0.00000857,-0.00002951,-0.00027771,0.00000316,0.00000
 077,-0.00009570,0.00000418,0.00000374,0.00000376,0.00003848,0.00003926
 ,-0.00026476,0.00000004,-0.00001284,0.00005272,-0.00000033,-0.00000062
 ,-0.00000887,-0.00048095,0.00058332,0.01379140,-0.00269181,-0.00487674
 ,-0.06201630,0.00001241,-0.00027250,0.00071639,0.00000124,-0.00000137,
 -0.00008456,0.00000096,-0.00000342,-0.00001083,0.00000245,0.00000253,-
 0.00000116,-0.00000008,-0.00000022,-0.00000497,-0.00000293,-0.00000088
 ,-0.00000053,-0.00009605,0.00006578,0.00172112,-0.00000681,0.00000641,
 0.00040917,-0.00010397,-0.00025685,0.00000308,0.00009027,0.00019989,-0
 .00000586,0.00002083,-0.00002573,-0.00022281,-0.00000465,0.00000393,0.
 00004757,0.00030197,-0.00083928,0.01329607,-0.00318267,-0.00027685,-0.
 05442164,0.00704214,0.00651579,0.11356913,-0.00225803,0.00219329,-0.00
 004194,0.00504969,-0.00341664,0.00004611,-0.00357724,0.00101480,-0.000
 07048,-0.02991837,0.00669251,-0.00029599,0.00084326,-0.00228700,-0.000
 00924,0.00360846,-0.00163861,0.00006117,0.00066701,0.00002941,0.000008
 93,0.00009787,0.00002078,0.00000430,0.00005575,-0.00003719,0.00000678,
 0.00030375,-0.00028685,0.00000104,-0.03084845,-0.06495717,-0.00124546,
 -0.15403313,0.12995520,0.00007352,0.00011040,0.02123772,0.00020938,0.0
 0145781,-0.00228847,0.00001179,-0.00003565,0.00092862,0.00000686,-0.00
 003373,0.00007336,-0.00000014,-0.00019285,0.00028318,0.00000005,-0.007
 60609,-0.00281515,-0.00012895,0.00002783,0.00149202,-0.00015766,0.0004
 9700,-0.00152565,-0.00002091,0.00001953,0.00149015,0.00019102,0.000057
 51,0.00021790,0.00000341,0.00004095,0.00000806,0.00000060,-0.00002249,
 -0.00003974,0.00002223,-0.00002163,-0.00003942,-0.00002379,-0.28329582
 ,-0.02516789,-0.00356635,0.00591510,0.00076839,-0.00014720,-0.00003749
 ,-0.00005330,-0.00000319,0.00116182,0.00155148,0.00003312,-0.00141737,
 0.00003341,-0.00002037,0.60099612,0.00152360,-0.00305794,-0.00001419,0
 .00281546,-0.00429658,-0.00001643,0.00129019,0.00126890,0.00003050,0.0
 2055312,0.01564572,0.00046801,-0.00009288,0.00010876,0.00000018,-0.000
 40446,0.00063899,-0.00000676,-0.00036073,-0.00001523,-0.00000596,-0.00
 000758,-0.00001473,0.00000074,-0.00010869,-0.00042177,-0.00000131,0.00
 002514,-0.00002383,0.00000049,-0.01973221,-0.03103209,-0.00074961,0.13
 582140,-0.38491853,-0.00143859,-0.00274578,0.00585960,0.00001604,-0.00
 120780,0.00046512,-0.00001294,-0.00010359,0.00003505,-0.00000169,-0.00
 000968,0.00003419,0.00000037,-0.00034146,0.00030703,0.00000157,-0.0042
 8199,0.00350585,-0.00004403,0.00059216,-0.00085872,0.00048963,0.000739
 23,-0.00128622,-0.00001442,0.00061240,-0.00087306,-0.00049421,-0.00000
 220,-0.00003331,-0.00000034,0.00004803,0.00000018,0.00000134,-0.000008
 64,0.00001672,-0.00000262,-0.00000891,0.00001685,0.00000267,-0.0298234
 6,-0.12950190,-0.00113361,-0.04789196,-0.07848565,-0.00159724,0.000205
 42,0.00033992,0.00000592,-0.00009093,-0.00054617,-0.00000540,-0.000006
 59,0.00018813,0.00000120,0.05308942,0.92620849,-0.00003362,-0.00000324
 ,0.00107665,0.00006672,-0.00009595,0.00127284,-0.00006286,0.00002021,0
 .00113620,-0.00020150,0.00028529,-0.00508105,0.00001237,-0.00003801,-0
 .00004389,0.00006301,-0.00001641,0.00005379,0.00000668,0.00000154,0.00
 009261,0.00000280,0.00000151,-0.00009560,0.00000639,-0.00000282,-0.000
 26688,0.00000435,-0.00000447,0.00000355,-0.00080312,-0.00136491,0.0137
 7134,0.00012217,-0.00150718,-0.06197866,-0.00003648,0.00034610,0.00072
 256,0.00000755,-0.00002286,-0.00026615,-0.00000268,0.00001287,0.000052
 99,-0.00000038,0.00000135,-0.00000887,-0.00000387,0.00000636,-0.000084
 70,-0.00018877,-0.00002020,0.00172008,0.00010358,-0.00021275,0.0000011
 2,0.00001114,-0.00004314,0.00040864,-0.00008217,0.00024760,-0.00000154
 ,0.00000086,0.00000220,-0.00001076,0.00000135,0.00000006,-0.00000496,-
 0.00000303,0.00000157,-0.00000063,0.00000232,-0.00000193,-0.00000109,-
 0.00351824,-0.00110749,-0.05440617,-0.00061442,-0.00093049,0.01328193,
 0.00000279,0.00000302,0.00004785,0.00001534,0.00001708,-0.00022245,-0.
 00001927,0.00000155,0.00001481,0.00740690,0.00910086,0.11358706,0.0001
 4299,0.00077112,-0.00000558,-0.00011898,0.00029147,0.00000189,0.001891
 00,0.00054374,0.00005639,-0.00001083,0.00008519,0.00000011,-0.00037180
 ,0.00028441,-0.00005457,0.00008879,-0.00003540,0.00000242,0.00004697,-
 0.00032199,-0.00000264,-0.00067099,-0.00040221,-0.00013247,0.00003366,
 -0.00002550,-0.00000004,0.00000610,0.00001684,-0.00000023,0.00001803,-
 0.00003276,0.00000363,-0.00001863,-0.00003898,-0.00000063,-0.00000595,
 -0.00000774,-0.00000028,-0.00570810,-0.00232515,-0.00016489,0.01294867
 ,-0.01061269,0.00009132,-0.00009660,0.00077182,0.00005408,0.00004805,0
 .00000255,0.00000184,0.00000555,-0.00001743,0.,-0.00000224,0.00000361,
 -0.00000106,0.00000069,-0.00000269,-0.00000002,-0.00000227,0.00000362,
 0.00000110,0.00125418,-0.00001061,-0.00000005,-0.00013169,-0.00037232,
 -0.00000484,-0.00002679,0.00002986,0.00002030,-0.00002235,0.00002269,-
 0.00001992,0.00000033,-0.00009190,-0.00000125,-0.00001078,-0.00004186,
 -0.00000081,-0.00111569,-0.00474003,-0.00014873,-0.00766528,0.03097138
 ,0.00019980,-0.10381561,0.10645047,-0.00027514,-0.00007633,-0.00003289
 ,-0.00000149,0.10339775,-0.00003969,0.00009572,-0.00000823,0.00010789,
 0.00007037,0.00000202,-0.00010572,-0.00047705,0.00000415,-0.00004262,-
 0.00005586,-0.00000139,-0.00026721,0.00023785,-0.00002500,0.00000005,0
 .00004540,0.00000086,0.00000306,-0.00005280,0.00000100,-0.00018422,-0.
 00019797,-0.00005829,0.00000788,-0.00000446,-0.00000030,0.00001501,0.0
 0001416,0.00000009,-0.00002226,-0.00000657,0.00000243,0.00001027,-0.00
 001894,-0.00000009,0.00000120,-0.00000009,-0.00000009,-0.00135544,0.00
 092373,-0.00004371,0.01321654,-0.00667077,0.00013677,-0.00024291,0.000
 39260,0.00002750,0.00003840,-0.00000288,0.00000113,0.00000103,0.000009
 32,0.00000017,0.00000176,-0.00000194,0.00000055,-0.00000599,-0.0000007
 4,-0.00000006,0.00000173,-0.00000191,-0.00000057,0.00100577,0.00007902
 ,0.00000574,-0.00020723,-0.00030968,-0.00000603,-0.00001932,0.00001361
 ,0.00000635,-0.00001648,0.00000927,-0.00000651,0.00003506,-0.00002683,
 0.00000009,0.00003201,0.00000182,0.00000042,-0.00213183,-0.00283291,-0
 .00010874,-0.00159580,0.00472708,0.00004409,0.11292268,-0.32324443,-0.
 00084723,-0.00002353,-0.00000340,-0.00000040,-0.12113834,0.32728696,-0
 .00001406,0.00000235,0.00095088,-0.00000056,0.00000784,0.00000790,0.00
 004682,0.00001648,-0.00123571,-0.00000351,0.00000068,0.00002720,-0.000
 05999,0.00001512,-0.00006655,0.00000345,0.00000195,-0.00001612,0.00000
 643,-0.00000881,-0.00013997,-0.00011149,-0.00006751,0.00040324,0.00000
 089,-0.00000105,0.00003110,0.00000014,0.00000075,0.00002684,0.00000544
 ,0.00000278,-0.00031298,0.00000039,-0.00000167,0.00000157,-0.00000019,
 -0.00000026,0.00001269,-0.00015204,-0.00005149,0.00368312,0.00030931,-
 0.00023084,0.00081456,0.00004368,0.00004225,-0.00315726,0.00000247,-0.
 00000152,-0.00005542,0.00000029,0.00000041,-0.00000919,-0.00000223,0.0
 0000127,-0.00000063,-0.00000033,-0.00000007,0.00000242,0.00000236,-0.0
 0000142,-0.00000067,0.00001344,-0.00001030,0.00125227,-0.00000481,-0.0
 0001049,-0.00004168,0.00011859,-0.00020672,-0.00003851,-0.00011848,0.0
 0020900,-0.00003962,0.00000155,-0.00000361,0.00002331,0.00000145,-0.00
 000068,0.00001199,-0.00013207,-0.00015595,0.00588802,-0.00007931,0.000
 53044,-0.00281552,-0.00025677,-0.00095163,-0.02474893,-0.00000250,-0.0
 0000061,0.00000271,0.00038206,0.00087335,0.01952554,0.00013568,-0.0007
 6943,-0.00001935,-0.00012676,-0.00029070,-0.00000544,-0.00001784,-0.00
 008998,-0.00000097,0.00188887,-0.00059188,0.00003944,0.00009645,0.0000
 3203,0.00000208,-0.00037761,-0.00029234,-0.00003411,0.00006069,0.00034
 075,0.00000649,0.00003701,0.00002612,0.00000054,-0.00053299,0.00039149
 ,-0.00002640,0.00000553,-0.00001818,-0.00000041,-0.00564928,0.00243439
 ,-0.00010807,0.01291786,0.01028826,0.00027509,-0.00010507,-0.00076070,
 0.00003460,0.00001640,0.00002673,0.00000511,-0.00001532,0.00004179,0.0
 0000008,-0.00000569,0.00000799,-0.00000017,0.00004756,0.00000294,0.000
 00114,0.00124078,-0.00001357,-0.00000344,-0.00002339,-0.00002214,-0.00
 002010,-0.00012325,0.00037001,0.00000420,-0.00002763,-0.00002704,0.000
 02042,0.00000560,0.00001483,0.00000040,0.00000031,0.00000284,-0.000000
 06,-0.00000214,-0.00000305,0.00000082,-0.00000203,-0.00000299,-0.00000
 092,-0.00814986,-0.03073235,-0.00039278,-0.00099529,0.00472747,-0.0000
 4541,-0.00000516,0.00004410,-0.00000001,0.00000840,0.00009854,0.000000
 48,-0.00007979,0.00003452,-0.00000084,-0.10753518,-0.11005314,-0.00226
 445,-0.00001187,-0.00000174,-0.00000043,0.10732497,0.00004020,0.000108
 78,-0.00000750,-0.00010466,0.00007660,-0.00000125,0.00004015,-0.000056
 28,-0.00000048,0.00006892,-0.00047015,0.00000895,0.00000127,0.00004404
 ,0.00000089,0.00028399,0.00021268,0.00001374,-0.00000263,-0.00005200,0
 .00000060,-0.00000734,-0.00000446,-0.00000046,0.00018817,-0.00008668,0
 .00000625,-0.00001463,0.00001413,-0.00000045,0.00146777,0.00085637,-0.
 00000971,-0.01355640,-0.00663430,-0.00026831,0.00025099,0.00040302,0.0
 0004040,0.00002119,-0.00000917,0.00000324,-0.00000950,-0.00001859,-0.0
 0000028,-0.00000107,-0.00000015,-0.00000016,-0.00003958,-0.00000042,0.
 00000027,-0.00102525,0.00009394,-0.00002192,0.00001973,0.00001439,0.00
 000710,0.00020487,-0.00031917,-0.00000165,0.00001692,0.00000936,-0.000
 00622,-0.00000102,0.00000839,0.00000011,0.00000586,-0.00000086,0.00000
 014,-0.00000170,-0.00000169,0.00000045,-0.00000163,-0.00000167,-0.0000
 0054,0.00180830,0.00522866,0.00010611,0.00210430,-0.00294673,-0.000065
 36,-0.00003032,0.00000213,-0.00000052,-0.00003344,-0.00002572,-0.00000
 092,0.00002344,-0.00000424,0.00000026,-0.11650308,-0.31927038,-0.00467
 691,0.00000174,0.00000230,-0.00000005,0.12478444,0.32282788,-0.0000164
 2,-0.00001920,0.00095118,-0.00000273,-0.00000203,0.00000764,0.00000062
 ,-0.00000274,0.00002730,0.00004723,-0.00000159,-0.00123666,0.00000196,
 0.00000141,-0.00001688,-0.00002291,-0.00001417,-0.00003554,0.00000315,
 0.00000655,-0.00013769,-0.00000002,0.00000003,0.00003081,-0.00002886,0
 .00001187,0.00047294,-0.00000046,-0.00000045,0.00002692,-0.00010863,0.
 00000037,0.00368530,0.00003382,0.00006828,0.00081837,0.00004454,0.0000
 2655,-0.00315790,0.00000571,0.00000241,-0.00031318,-0.00000033,0.00000
 045,0.00000162,-0.00000026,0.,0.00001268,0.00000041,0.00000020,-0.0000
 5572,-0.00001002,-0.00001590,0.00125125,-0.00012163,-0.00020434,-0.000
 04304,0.00000212,0.00000021,-0.00004178,0.00012196,0.00020697,-0.00003
 509,0.00000023,0.00000029,-0.00000936,-0.00000007,-0.00000002,0.000002
 48,0.00000228,0.00000127,-0.00000060,-0.00000235,-0.00000131,-0.000000
 67,-0.00004389,-0.00034169,-0.00283186,-0.00008293,-0.00001953,0.00588
 998,-0.00000026,0.00000058,0.00001197,-0.00000044,0.00000078,0.0000233
 2,-0.00000100,0.00000023,0.00000281,-0.00235304,-0.00457957,-0.0247733
 1,-0.00000027,-0.00000010,0.00001343,0.00253248,0.00487419,0.01945931\
 \-0.00000045,0.00000434,-0.00000194,-0.00000656,-0.00000517,0.00000143
 ,0.00000130,0.00000334,0.00000011,0.00000651,-0.00000080,0.00000014,0.
 00000556,-0.00000515,0.00000278,0.00000442,-0.00000028,-0.00000012,0.0
 0000275,0.00000670,0.00000176,-0.00000053,0.00000410,0.00000311,0.0000
 0092,-0.00000217,-0.00000010,0.00000434,-0.00000378,0.00000212,0.00000
 215,-0.00000677,-0.00000055,-0.00000561,-0.00000039,-0.00000340,0.0000
 0070,-0.00000471,-0.00000407,0.00000650,-0.00000028,0.00000210,0.00000
 667,0.00000774,0.00000389,-0.00000541,0.00000265,0.00000331,-0.0000031
 9,-0.00000105,-0.00000185,0.00000529,0.00000050,-0.00000114,-0.0000027
 3,-0.00000360,-0.00000557,-0.00000519,-0.00000198,-0.00000333,-0.00000
 373,-0.00000339,-0.00000497,-0.00000283,0.00001129,0.00000255,0.000003
 06,0.00000044,0.00000162,-0.00000346,0.00000218,0.00000318,-0.00000541
 ,0.00000251,-0.00000109,-0.00000144,0.00000603,-0.00000164,-0.00000263
 ,-0.00000318,-0.00000444,-0.00000650,-0.00000623,0.00000091,0.00000600
 ,0.00000088,0.00000256,-0.00000705,0.00000670,0.00000342,0.00000093,-0
 .00001290,-0.00000199,0.00000243,0.00000115,0.00000366,0.00000318,0.00
 000126,-0.00000248\\\@


 SCIENCE AND PEACE WILL TRIUMPH OVER IGNORANCE AND WAR

                          -- PASTEUR
 Job cpu time:       0 days  4 hours 43 minutes 29.0 seconds.
 Elapsed time:       0 days  0 hours  5 minutes  6.8 seconds.
 File lengths (MBytes):  RWF=    643 Int=      0 D2E=      0 Chk=     18 Scr=      1
 Normal termination of Gaussian 16 at Sun Feb  8 17:03:02 2026.
