42
15_2_g.log	Energy: -779821.1208211
Pt        -0.02264       -0.11497        0.05792
C          3.01416       -0.61960       -0.06697
C          1.86633       -2.25817        1.10235
C          4.23398       -1.29221        0.13209
C          3.02669       -2.96616        1.36455
H          0.89749       -2.58583        1.47864
C          4.23859       -2.48051        0.84702
H          5.14383       -0.84243       -0.26468
H          2.98203       -3.87931        1.95831
H          5.17490       -3.01344        1.02286
C          0.97866        1.64977       -0.05323
C          0.38332        2.92166        0.10004
C          2.32871        1.69340       -0.44677
C          1.08793        4.12428       -0.08052
C          3.06457        2.86430       -0.64984
C          2.43048        4.09355       -0.45260
H          0.55608        5.06675        0.06151
H          4.10928        2.79470       -0.95635
H          2.98132        5.02526       -0.59829
C         -1.75929        0.84914        0.14084
C         -2.93050        0.05325        0.14724
C         -1.94595        2.21678        0.37459
C         -4.21476        0.55504        0.34580
C         -3.23012        2.76114        0.57808
C         -4.35221        1.93548        0.55887
H         -5.08880       -0.09805        0.34748
H         -3.32019        3.83581        0.74778
H         -5.34427        2.36415        0.71522
O         -0.93415        3.13482        0.44063
O          3.07357        0.53662       -0.73949
N         -2.65733       -1.32709       -0.05983
C         -3.50585       -2.38268       -0.34370
C         -1.33841       -1.70185       -0.14065
C         -2.70341       -3.44830       -0.62198
H         -4.58700       -2.29288       -0.34113
H         -2.94992       -4.46862       -0.89975
C         -0.23181       -3.84679       -0.81049
H          0.61554       -3.19590       -1.05044
H          0.02277       -4.49427        0.04073
H         -0.46290       -4.47178       -1.68259
N         -1.38693       -3.01180       -0.50545
N          1.84354       -1.11899        0.36304
