 Entering Gaussian System, Link 0=g16
 Input=/tmp/zgshuai_229458/test_opt.com
 Output=/tmp/zgshuai_229458/test_opt.log
 Initial command:
 /home/software/g16-shuai/g16/l1.exe "/tmp/zgshuai_229458/g16_tmp/Gau-1995369.inp" -scrdir="/tmp/zgshuai_229458/g16_tmp/"
 Entering Link 1 = /home/software/g16-shuai/g16/l1.exe PID=   1995370.
  
 Copyright (c) 1988-2019, Gaussian, Inc.  All Rights Reserved.
  
 This is part of the Gaussian(R) 16 program.  It is based on
 the Gaussian(R) 09 system (copyright 2009, Gaussian, Inc.),
 the Gaussian(R) 03 system (copyright 2003, Gaussian, Inc.),
 the Gaussian(R) 98 system (copyright 1998, Gaussian, Inc.),
 the Gaussian(R) 94 system (copyright 1995, Gaussian, Inc.),
 the Gaussian 92(TM) system (copyright 1992, Gaussian, Inc.),
 the Gaussian 90(TM) system (copyright 1990, Gaussian, Inc.),
 the Gaussian 88(TM) system (copyright 1988, Gaussian, Inc.),
 the Gaussian 86(TM) system (copyright 1986, Carnegie Mellon
 University), and the Gaussian 82(TM) system (copyright 1983,
 Carnegie Mellon University). Gaussian is a federally registered
 trademark of Gaussian, Inc.
  
 This software contains proprietary and confidential information,
 including trade secrets, belonging to Gaussian, Inc.
  
 This software is provided under written license and may be
 used, copied, transmitted, or stored only in accord with that
 written license.
  
 The following legend is applicable only to US Government
 contracts under FAR:
  
                    RESTRICTED RIGHTS LEGEND
  
 Use, reproduction and disclosure by the US Government is
 subject to restrictions as set forth in subparagraphs (a)
 and (c) of the Commercial Computer Software - Restricted
 Rights clause in FAR 52.227-19.
  
 Gaussian, Inc.
 340 Quinnipiac St., Bldg. 40, Wallingford CT 06492
  
  
 ---------------------------------------------------------------
 Warning -- This program may not be used in any manner that
 competes with the business of Gaussian, Inc. or will provide
 assistance to any competitor of Gaussian, Inc.  The licensee
 of this program is prohibited from giving any competitor of
 Gaussian, Inc. access to this program.  By using this program,
 the user acknowledges that Gaussian, Inc. is engaged in the
 business of creating and licensing software in the field of
 computational chemistry and represents and warrants to the
 licensee that it is not a competitor of Gaussian, Inc. and that
 it will not use this program in any manner prohibited above.
 ---------------------------------------------------------------
  

 Cite this work as:
 Gaussian 16, Revision C.01,
 M. J. Frisch, G. W. Trucks, H. B. Schlegel, G. E. Scuseria, 
 M. A. Robb, J. R. Cheeseman, G. Scalmani, V. Barone, 
 G. A. Petersson, H. Nakatsuji, X. Li, M. Caricato, A. V. Marenich, 
 J. Bloino, B. G. Janesko, R. Gomperts, B. Mennucci, H. P. Hratchian, 
 J. V. Ortiz, A. F. Izmaylov, J. L. Sonnenberg, D. Williams-Young, 
 F. Ding, F. Lipparini, F. Egidi, J. Goings, B. Peng, A. Petrone, 
 T. Henderson, D. Ranasinghe, V. G. Zakrzewski, J. Gao, N. Rega, 
 G. Zheng, W. Liang, M. Hada, M. Ehara, K. Toyota, R. Fukuda, 
 J. Hasegawa, M. Ishida, T. Nakajima, Y. Honda, O. Kitao, H. Nakai, 
 T. Vreven, K. Throssell, J. A. Montgomery, Jr., J. E. Peralta, 
 F. Ogliaro, M. J. Bearpark, J. J. Heyd, E. N. Brothers, K. N. Kudin, 
 V. N. Staroverov, T. A. Keith, R. Kobayashi, J. Normand, 
 K. Raghavachari, A. P. Rendell, J. C. Burant, S. S. Iyengar, 
 J. Tomasi, M. Cossi, J. M. Millam, M. Klene, C. Adamo, R. Cammi, 
 J. W. Ochterski, R. L. Martin, K. Morokuma, O. Farkas, 
 J. B. Foresman, and D. J. Fox, Gaussian, Inc., Wallingford CT, 2019.
 
 ******************************************
 Gaussian 16:  ES64L-G16RevC.01  3-Jul-2019
                 7-Feb-2026 
 ******************************************
 %nprocshared=56
 Will use up to   56 processors via shared memory.
 %mem=80GB
 %chk=s0_opt.chk
 ----------------------------------------------------------------------
 #p opt=calcall TPSSh/def2svp scrf=solvent=CH2Cl2 empiricaldispersion=g
 d3bj IOp(3/174=1000000,3/175=2238200,3/177=452900,3/178=4655000) nosym
 m
 ----------------------------------------------------------------------
 1/10=4,18=20,19=15,26=3,38=1/1,3;
 2/9=110,12=2,15=1,17=6,18=5,40=1/2;
 3/5=43,7=101,11=2,25=1,30=1,70=2201,71=2,72=9,74=-35,124=41,140=1,174=1000000,175=2238200,177=452900,178=4655000/1,2,3;
 4//1;
 5/5=2,38=5,53=9/2;
 8/6=4,10=90,11=11/1;
 11/6=1,8=1,9=11,15=111,16=1,31=1/1,2,10;
 10/6=1,31=1/2;
 6/7=2,8=2,9=2,10=2,18=1,28=1/1;
 7/10=1,25=1,30=1/1,2,3,16;
 1/10=4,18=20,19=15,26=3/3(3);
 2/9=110,15=1/2;
 7/8=1,9=1,25=1,30=1,44=-1/16;
 99//99;
 2/9=110,15=1/2;
 3/5=43,7=101,11=2,25=1,30=1,70=2205,71=2,72=9,74=-35,124=41,140=1,174=1000000,175=2238200,177=452900,178=4655000/1,2,3;
 4/5=5,16=3,69=1/1;
 5/5=2,38=5,53=9/2;
 8/6=4,10=90,11=11/1;
 11/6=1,8=1,9=11,15=111,16=1,31=1/1,2,10;
 10/6=1,31=1/2;
 7/10=1,25=1,30=1/1,2,3,16;
 1/10=4,18=20,19=15,26=3/3(-8);
 2/9=110,15=1/2;
 6/7=2,8=2,9=2,10=2,18=1,19=2,28=1/1;
 7/8=1,9=1,25=1,30=1,44=-1/16;
 99//99;
 Leave Link    1 at Sat Feb  7 17:23:17 2026, MaxMem= 10737418240 cpu:               1.1 elap:               0.0
 (Enter /home/software/g16-shuai/g16/l101.exe)
 ----------
 test-s0opt
 ----------
 Symbolic Z-matrix:
 Charge =  0 Multiplicity = 1
 C                     1.40005   2.5227    2.94502 
 C                     2.74773   2.67306   3.28572 
 C                     3.42574   1.67698   2.60755 
 N                     2.49469   1.00922   1.89479 
 N                     1.27786   1.52055   2.08148 
 C                     4.86142   1.30796   2.58402 
 C                     0.21426   3.26335   3.45193 
 N                     2.73616  -0.11437   1.15797 
 C                     3.52827   0.02417  -0.01428 
 C                     4.64388  -0.79582  -0.15999 
 C                     3.24749   0.96845  -1.00879 
 C                     5.46779  -0.69609  -1.26188 
 C                     4.10399   1.064    -2.09844 
 C                     5.2139    0.24849  -2.24783 
 C                     1.84554  -1.23541   1.30188 
 C                     2.44259  -2.45134   1.60927 
 C                     0.4606   -1.09852   1.13117 
 C                     1.65707  -3.58284   1.68834 
 C                    -0.31532  -2.27812   1.15425 
 C                     0.3038   -3.50202   1.4423 
 C                     2.04789   1.86037  -0.94391 
 C                     6.11071   0.36321  -3.4426 
 C                    -1.93502   0.00125   0.11538 
 C                    -2.78684   0.9786   -0.41589 
 C                    -4.1305    0.74359  -0.6683 
 C                    -4.62464  -0.5262   -0.43415 
 C                    -3.80701  -1.52651   0.05157 
 C                    -2.45856  -1.28163   0.3486 
 N                    -1.68369  -2.30899   0.87069 
 C                    -2.34598  -3.55931   1.05962 
 C                    -2.49282  -4.4454   -0.01255 
 C                    -2.84289  -3.88137   2.31422 
 C                    -3.14741  -5.64773   0.21125 
 C                    -3.49112  -5.087     2.5181 
 C                    -3.64348  -5.96994   1.46355 
 C                    -1.94889  -4.08474  -1.35948 
 C                    -0.81374   3.77624   0.082 
 C                    -1.48032   4.27964  -1.02835 
 C                    -2.35687   3.28295  -1.43342 
 N                    -2.19833   2.26217  -0.56079 
 N                    -1.25194   2.55585   0.34692 
 C                    -3.16589   3.35105  -2.69534 
 C                    -3.17219   2.03955  -3.48093 
 C                    -4.57827   3.89775  -2.46077 
 Pt                   -0.30306   0.73624   0.93967 
 H                     3.16862   3.39976   3.95022 
 H                     5.30644   1.53366   1.61426 
 H                     4.97417   0.23943   2.76151 
 H                     5.39571   1.85807   3.35341 
 H                    -0.68668   2.85796   2.99167 
 H                     0.2884    4.32701   3.22832 
 H                     0.13764   3.15224   4.53292 
 H                     4.87084  -1.52182   0.60294 
 H                     6.32417  -1.34851  -1.35171 
 H                     3.88348   1.7959   -2.86372 
 H                     3.50266  -2.51243   1.79287 
 H                     2.10072  -4.53667   1.93299 
 H                    -0.27819  -4.40943   1.48136 
 H                     2.21042   2.68455  -0.2468 
 H                     1.83769   2.28689  -1.92214 
 H                     1.15751   1.2853   -0.61085 
 H                     5.88514   1.2586   -4.01627 
 H                     7.15485   0.39577  -3.136 
 H                     5.982    -0.50266  -4.09196 
 H                    -4.79089   1.53261  -0.98461 
 H                    -5.6686   -0.73566  -0.61588 
 H                    -4.24011  -2.49721   0.23737 
 H                    -2.71173  -3.17838   3.1233 
 H                    -3.26782  -6.34303  -0.60755 
 H                    -3.87602  -5.33473   3.49603 
 H                    -4.14815  -6.9128    1.61472 
 H                    -0.89286  -3.82841  -1.28393 
 H                    -2.06557  -4.90977  -2.05749 
 H                    -2.47048  -3.2129   -1.75457 
 H                    -0.05573   4.24239   0.68095 
 H                    -1.34052   5.23387  -1.49475 
 H                    -2.6464    4.09522  -3.31346 
 H                    -2.15491   1.67636  -3.61221 
 H                    -3.74609   1.26751  -2.97857 
 H                    -3.60712   2.20703  -4.46381 
 H                    -5.18894   3.21221  -1.88118 
 H                    -4.53005   4.84488  -1.92737 
 H                    -5.07027   4.0632   -3.41655 
 
 ITRead=  0  0  0  0  0  0  0  0  0  0  0  0  0  0  0  0  0  0  0  0
 ITRead=  0  0  0  0  0  0  0  0  0  0  0  0  0  0  0  0  0  0  0  0
 ITRead=  0  0  0  0  0  0  0  0  0  0  0  0  0  0  0  0  0  0  0  0
 ITRead=  0  0  0  0  0  0  0  0  0  0  0  0  0  0  0  0  0  0  0  0
 ITRead=  0  0  0
 MicOpt= -1 -1 -1 -1 -1 -1 -1 -1 -1 -1 -1 -1 -1 -1 -1 -1 -1 -1 -1 -1
 MicOpt= -1 -1 -1 -1 -1 -1 -1 -1 -1 -1 -1 -1 -1 -1 -1 -1 -1 -1 -1 -1
 MicOpt= -1 -1 -1 -1 -1 -1 -1 -1 -1 -1 -1 -1 -1 -1 -1 -1 -1 -1 -1 -1
 MicOpt= -1 -1 -1 -1 -1 -1 -1 -1 -1 -1 -1 -1 -1 -1 -1 -1 -1 -1 -1 -1
 MicOpt= -1 -1 -1
 NAtoms=     83 NQM=       83 NQMF=       0 NMMI=      0 NMMIF=      0
                NMic=       0 NMicF=      0.
                    Isotopes and Nuclear Properties:
 (Nuclear quadrupole moments (NQMom) in fm**2, nuclear magnetic moments (NMagM)
  in nuclear magnetons)

  Atom         1           2           3           4           5           6           7           8           9          10
 IAtWgt=          12          12          12          14          14          12          12          14          12          12
 AtmWgt=  12.0000000  12.0000000  12.0000000  14.0030740  14.0030740  12.0000000  12.0000000  14.0030740  12.0000000  12.0000000
 NucSpn=           0           0           0           2           2           0           0           2           0           0
 AtZEff=  -0.0000000  -0.0000000  -0.0000000  -0.0000000  -0.0000000  -0.0000000  -0.0000000  -0.0000000  -0.0000000  -0.0000000
 NQMom=    0.0000000   0.0000000   0.0000000   2.0440000   2.0440000   0.0000000   0.0000000   2.0440000   0.0000000   0.0000000
 NMagM=    0.0000000   0.0000000   0.0000000   0.4037610   0.4037610   0.0000000   0.0000000   0.4037610   0.0000000   0.0000000
 AtZNuc=   6.0000000   6.0000000   6.0000000   7.0000000   7.0000000   6.0000000   6.0000000   7.0000000   6.0000000   6.0000000

  Atom        11          12          13          14          15          16          17          18          19          20
 IAtWgt=          12          12          12          12          12          12          12          12          12          12
 AtmWgt=  12.0000000  12.0000000  12.0000000  12.0000000  12.0000000  12.0000000  12.0000000  12.0000000  12.0000000  12.0000000
 NucSpn=           0           0           0           0           0           0           0           0           0           0
 AtZEff=  -0.0000000  -0.0000000  -0.0000000  -0.0000000  -0.0000000  -0.0000000  -0.0000000  -0.0000000  -0.0000000  -0.0000000
 NQMom=    0.0000000   0.0000000   0.0000000   0.0000000   0.0000000   0.0000000   0.0000000   0.0000000   0.0000000   0.0000000
 NMagM=    0.0000000   0.0000000   0.0000000   0.0000000   0.0000000   0.0000000   0.0000000   0.0000000   0.0000000   0.0000000
 AtZNuc=   6.0000000   6.0000000   6.0000000   6.0000000   6.0000000   6.0000000   6.0000000   6.0000000   6.0000000   6.0000000

  Atom        21          22          23          24          25          26          27          28          29          30
 IAtWgt=          12          12          12          12          12          12          12          12          14          12
 AtmWgt=  12.0000000  12.0000000  12.0000000  12.0000000  12.0000000  12.0000000  12.0000000  12.0000000  14.0030740  12.0000000
 NucSpn=           0           0           0           0           0           0           0           0           2           0
 AtZEff=  -0.0000000  -0.0000000  -0.0000000  -0.0000000  -0.0000000  -0.0000000  -0.0000000  -0.0000000  -0.0000000  -0.0000000
 NQMom=    0.0000000   0.0000000   0.0000000   0.0000000   0.0000000   0.0000000   0.0000000   0.0000000   2.0440000   0.0000000
 NMagM=    0.0000000   0.0000000   0.0000000   0.0000000   0.0000000   0.0000000   0.0000000   0.0000000   0.4037610   0.0000000
 AtZNuc=   6.0000000   6.0000000   6.0000000   6.0000000   6.0000000   6.0000000   6.0000000   6.0000000   7.0000000   6.0000000

  Atom        31          32          33          34          35          36          37          38          39          40
 IAtWgt=          12          12          12          12          12          12          12          12          12          14
 AtmWgt=  12.0000000  12.0000000  12.0000000  12.0000000  12.0000000  12.0000000  12.0000000  12.0000000  12.0000000  14.0030740
 NucSpn=           0           0           0           0           0           0           0           0           0           2
 AtZEff=  -0.0000000  -0.0000000  -0.0000000  -0.0000000  -0.0000000  -0.0000000  -0.0000000  -0.0000000  -0.0000000  -0.0000000
 NQMom=    0.0000000   0.0000000   0.0000000   0.0000000   0.0000000   0.0000000   0.0000000   0.0000000   0.0000000   2.0440000
 NMagM=    0.0000000   0.0000000   0.0000000   0.0000000   0.0000000   0.0000000   0.0000000   0.0000000   0.0000000   0.4037610
 AtZNuc=   6.0000000   6.0000000   6.0000000   6.0000000   6.0000000   6.0000000   6.0000000   6.0000000   6.0000000   7.0000000

  Atom        41          42          43          44          45          46          47          48          49          50
 IAtWgt=          14          12          12          12         195           1           1           1           1           1
 AtmWgt=  14.0030740  12.0000000  12.0000000  12.0000000 194.9648000   1.0078250   1.0078250   1.0078250   1.0078250   1.0078250
 NucSpn=           2           0           0           0           1           1           1           1           1           1
 AtZEff=  -0.0000000  -0.0000000  -0.0000000  -0.0000000  -0.0000000  -0.0000000  -0.0000000  -0.0000000  -0.0000000  -0.0000000
 NQMom=    2.0440000   0.0000000   0.0000000   0.0000000   0.0000000   0.0000000   0.0000000   0.0000000   0.0000000   0.0000000
 NMagM=    0.4037610   0.0000000   0.0000000   0.0000000   0.6095000   2.7928460   2.7928460   2.7928460   2.7928460   2.7928460
 AtZNuc=   7.0000000   6.0000000   6.0000000   6.0000000  78.0000000   1.0000000   1.0000000   1.0000000   1.0000000   1.0000000

  Atom        51          52          53          54          55          56          57          58          59          60
 IAtWgt=           1           1           1           1           1           1           1           1           1           1
 AtmWgt=   1.0078250   1.0078250   1.0078250   1.0078250   1.0078250   1.0078250   1.0078250   1.0078250   1.0078250   1.0078250
 NucSpn=           1           1           1           1           1           1           1           1           1           1
 AtZEff=  -0.0000000  -0.0000000  -0.0000000  -0.0000000  -0.0000000  -0.0000000  -0.0000000  -0.0000000  -0.0000000  -0.0000000
 NQMom=    0.0000000   0.0000000   0.0000000   0.0000000   0.0000000   0.0000000   0.0000000   0.0000000   0.0000000   0.0000000
 NMagM=    2.7928460   2.7928460   2.7928460   2.7928460   2.7928460   2.7928460   2.7928460   2.7928460   2.7928460   2.7928460
 AtZNuc=   1.0000000   1.0000000   1.0000000   1.0000000   1.0000000   1.0000000   1.0000000   1.0000000   1.0000000   1.0000000

  Atom        61          62          63          64          65          66          67          68          69          70
 IAtWgt=           1           1           1           1           1           1           1           1           1           1
 AtmWgt=   1.0078250   1.0078250   1.0078250   1.0078250   1.0078250   1.0078250   1.0078250   1.0078250   1.0078250   1.0078250
 NucSpn=           1           1           1           1           1           1           1           1           1           1
 AtZEff=  -0.0000000  -0.0000000  -0.0000000  -0.0000000  -0.0000000  -0.0000000  -0.0000000  -0.0000000  -0.0000000  -0.0000000
 NQMom=    0.0000000   0.0000000   0.0000000   0.0000000   0.0000000   0.0000000   0.0000000   0.0000000   0.0000000   0.0000000
 NMagM=    2.7928460   2.7928460   2.7928460   2.7928460   2.7928460   2.7928460   2.7928460   2.7928460   2.7928460   2.7928460
 AtZNuc=   1.0000000   1.0000000   1.0000000   1.0000000   1.0000000   1.0000000   1.0000000   1.0000000   1.0000000   1.0000000

  Atom        71          72          73          74          75          76          77          78          79          80
 IAtWgt=           1           1           1           1           1           1           1           1           1           1
 AtmWgt=   1.0078250   1.0078250   1.0078250   1.0078250   1.0078250   1.0078250   1.0078250   1.0078250   1.0078250   1.0078250
 NucSpn=           1           1           1           1           1           1           1           1           1           1
 AtZEff=  -0.0000000  -0.0000000  -0.0000000  -0.0000000  -0.0000000  -0.0000000  -0.0000000  -0.0000000  -0.0000000  -0.0000000
 NQMom=    0.0000000   0.0000000   0.0000000   0.0000000   0.0000000   0.0000000   0.0000000   0.0000000   0.0000000   0.0000000
 NMagM=    2.7928460   2.7928460   2.7928460   2.7928460   2.7928460   2.7928460   2.7928460   2.7928460   2.7928460   2.7928460
 AtZNuc=   1.0000000   1.0000000   1.0000000   1.0000000   1.0000000   1.0000000   1.0000000   1.0000000   1.0000000   1.0000000

  Atom        81          82          83
 IAtWgt=           1           1           1
 AtmWgt=   1.0078250   1.0078250   1.0078250
 NucSpn=           1           1           1
 AtZEff=  -0.0000000  -0.0000000  -0.0000000
 NQMom=    0.0000000   0.0000000   0.0000000
 NMagM=    2.7928460   2.7928460   2.7928460
 AtZNuc=   1.0000000   1.0000000   1.0000000
 Leave Link  101 at Sat Feb  7 17:23:17 2026, MaxMem= 10737418240 cpu:              15.6 elap:               0.3
 (Enter /home/software/g16-shuai/g16/l103.exe)

 GradGradGradGradGradGradGradGradGradGradGradGradGradGradGradGradGradGrad
 Berny optimization.
 Initialization pass.
                           ----------------------------
                           !    Initial Parameters    !
                           ! (Angstroms and Degrees)  !
 --------------------------                            --------------------------
 ! Name  Definition              Value          Derivative Info.                !
 --------------------------------------------------------------------------------
 ! R1    R(1,2)                  1.3982         calculate D2E/DX2 analytically  !
 ! R2    R(1,5)                  1.3285         calculate D2E/DX2 analytically  !
 ! R3    R(1,7)                  1.4872         calculate D2E/DX2 analytically  !
 ! R4    R(2,3)                  1.3827         calculate D2E/DX2 analytically  !
 ! R5    R(2,46)                 1.0709         calculate D2E/DX2 analytically  !
 ! R6    R(3,4)                  1.3494         calculate D2E/DX2 analytically  !
 ! R7    R(3,6)                  1.4825         calculate D2E/DX2 analytically  !
 ! R8    R(4,5)                  1.333          calculate D2E/DX2 analytically  !
 ! R9    R(4,8)                  1.3652         calculate D2E/DX2 analytically  !
 ! R10   R(5,45)                 2.1019         calculate D2E/DX2 analytically  !
 ! R11   R(6,47)                 1.0906         calculate D2E/DX2 analytically  !
 ! R12   R(6,48)                 1.089          calculate D2E/DX2 analytically  !
 ! R13   R(6,49)                 1.0863         calculate D2E/DX2 analytically  !
 ! R14   R(7,50)                 1.0899         calculate D2E/DX2 analytically  !
 ! R15   R(7,51)                 1.0894         calculate D2E/DX2 analytically  !
 ! R16   R(7,52)                 1.0894         calculate D2E/DX2 analytically  !
 ! R17   R(8,9)                  1.4216         calculate D2E/DX2 analytically  !
 ! R18   R(8,15)                 1.439          calculate D2E/DX2 analytically  !
 ! R19   R(9,10)                 1.3922         calculate D2E/DX2 analytically  !
 ! R20   R(9,11)                 1.3998         calculate D2E/DX2 analytically  !
 ! R21   R(10,12)                1.3795         calculate D2E/DX2 analytically  !
 ! R22   R(10,53)                1.0773         calculate D2E/DX2 analytically  !
 ! R23   R(11,13)                1.3893         calculate D2E/DX2 analytically  !
 ! R24   R(11,21)                1.4963         calculate D2E/DX2 analytically  !
 ! R25   R(12,14)                1.3888         calculate D2E/DX2 analytically  !
 ! R26   R(12,54)                1.0803         calculate D2E/DX2 analytically  !
 ! R27   R(13,14)                1.3854         calculate D2E/DX2 analytically  !
 ! R28   R(13,55)                1.0816         calculate D2E/DX2 analytically  !
 ! R29   R(14,22)                1.4983         calculate D2E/DX2 analytically  !
 ! R30   R(15,16)                1.389          calculate D2E/DX2 analytically  !
 ! R31   R(15,17)                1.4021         calculate D2E/DX2 analytically  !
 ! R32   R(16,18)                1.3797         calculate D2E/DX2 analytically  !
 ! R33   R(16,56)                1.0776         calculate D2E/DX2 analytically  !
 ! R34   R(17,19)                1.4121         calculate D2E/DX2 analytically  !
 ! R35   R(17,45)                1.9965         calculate D2E/DX2 analytically  !
 ! R36   R(18,20)                1.3778         calculate D2E/DX2 analytically  !
 ! R37   R(18,57)                1.08           calculate D2E/DX2 analytically  !
 ! R38   R(19,20)                1.4015         calculate D2E/DX2 analytically  !
 ! R39   R(19,29)                1.3978         calculate D2E/DX2 analytically  !
 ! R40   R(20,58)                1.0787         calculate D2E/DX2 analytically  !
 ! R41   R(21,59)                1.0916         calculate D2E/DX2 analytically  !
 ! R42   R(21,60)                1.0877         calculate D2E/DX2 analytically  !
 ! R43   R(21,61)                1.111          calculate D2E/DX2 analytically  !
 ! R44   R(22,62)                1.0871         calculate D2E/DX2 analytically  !
 ! R45   R(22,63)                1.0887         calculate D2E/DX2 analytically  !
 ! R46   R(22,64)                1.0899         calculate D2E/DX2 analytically  !
 ! R47   R(23,24)                1.4011         calculate D2E/DX2 analytically  !
 ! R48   R(23,28)                1.4051         calculate D2E/DX2 analytically  !
 ! R49   R(23,45)                1.9705         calculate D2E/DX2 analytically  !
 ! R50   R(24,25)                1.3872         calculate D2E/DX2 analytically  !
 ! R51   R(24,40)                1.4195         calculate D2E/DX2 analytically  !
 ! R52   R(25,26)                1.3825         calculate D2E/DX2 analytically  !
 ! R53   R(25,65)                1.0764         calculate D2E/DX2 analytically  !
 ! R54   R(26,27)                1.3802         calculate D2E/DX2 analytically  !
 ! R55   R(26,66)                1.0802         calculate D2E/DX2 analytically  !
 ! R56   R(27,28)                1.4023         calculate D2E/DX2 analytically  !
 ! R57   R(27,67)                1.0791         calculate D2E/DX2 analytically  !
 ! R58   R(28,29)                1.3887         calculate D2E/DX2 analytically  !
 ! R59   R(29,30)                1.4274         calculate D2E/DX2 analytically  !
 ! R60   R(30,31)                1.3987         calculate D2E/DX2 analytically  !
 ! R61   R(30,32)                1.3873         calculate D2E/DX2 analytically  !
 ! R62   R(31,33)                1.3871         calculate D2E/DX2 analytically  !
 ! R63   R(31,36)                1.4967         calculate D2E/DX2 analytically  !
 ! R64   R(32,34)                1.3839         calculate D2E/DX2 analytically  !
 ! R65   R(32,68)                1.0798         calculate D2E/DX2 analytically  !
 ! R66   R(33,35)                1.385          calculate D2E/DX2 analytically  !
 ! R67   R(33,69)                1.0809         calculate D2E/DX2 analytically  !
 ! R68   R(34,35)                1.3838         calculate D2E/DX2 analytically  !
 ! R69   R(34,70)                1.0798         calculate D2E/DX2 analytically  !
 ! R70   R(35,71)                1.0801         calculate D2E/DX2 analytically  !
 ! R71   R(36,72)                1.0893         calculate D2E/DX2 analytically  !
 ! R72   R(36,73)                1.087          calculate D2E/DX2 analytically  !
 ! R73   R(36,74)                1.0901         calculate D2E/DX2 analytically  !
 ! R74   R(37,38)                1.3895         calculate D2E/DX2 analytically  !
 ! R75   R(37,41)                1.3235         calculate D2E/DX2 analytically  !
 ! R76   R(37,75)                1.0727         calculate D2E/DX2 analytically  !
 ! R77   R(38,39)                1.3877         calculate D2E/DX2 analytically  !
 ! R78   R(38,76)                1.0713         calculate D2E/DX2 analytically  !
 ! R79   R(39,40)                1.3523         calculate D2E/DX2 analytically  !
 ! R80   R(39,42)                1.5005         calculate D2E/DX2 analytically  !
 ! R81   R(40,41)                1.3438         calculate D2E/DX2 analytically  !
 ! R82   R(41,45)                2.1361         calculate D2E/DX2 analytically  !
 ! R83   R(42,43)                1.5288         calculate D2E/DX2 analytically  !
 ! R84   R(42,44)                1.5326         calculate D2E/DX2 analytically  !
 ! R85   R(42,77)                1.0981         calculate D2E/DX2 analytically  !
 ! R86   R(43,78)                1.0881         calculate D2E/DX2 analytically  !
 ! R87   R(43,79)                1.0853         calculate D2E/DX2 analytically  !
 ! R88   R(43,80)                1.0878         calculate D2E/DX2 analytically  !
 ! R89   R(44,81)                1.0857         calculate D2E/DX2 analytically  !
 ! R90   R(44,82)                1.0881         calculate D2E/DX2 analytically  !
 ! R91   R(44,83)                1.0876         calculate D2E/DX2 analytically  !
 ! A1    A(2,1,5)              109.1573         calculate D2E/DX2 analytically  !
 ! A2    A(2,1,7)              129.1934         calculate D2E/DX2 analytically  !
 ! A3    A(5,1,7)              121.5948         calculate D2E/DX2 analytically  !
 ! A4    A(1,2,3)              106.0011         calculate D2E/DX2 analytically  !
 ! A5    A(1,2,46)             127.0856         calculate D2E/DX2 analytically  !
 ! A6    A(3,2,46)             126.9048         calculate D2E/DX2 analytically  !
 ! A7    A(2,3,4)              106.0957         calculate D2E/DX2 analytically  !
 ! A8    A(2,3,6)              131.4497         calculate D2E/DX2 analytically  !
 ! A9    A(4,3,6)              122.454          calculate D2E/DX2 analytically  !
 ! A10   A(3,4,5)              111.4718         calculate D2E/DX2 analytically  !
 ! A11   A(3,4,8)              124.7746         calculate D2E/DX2 analytically  !
 ! A12   A(5,4,8)              123.5562         calculate D2E/DX2 analytically  !
 ! A13   A(1,5,4)              107.2431         calculate D2E/DX2 analytically  !
 ! A14   A(1,5,45)             134.728          calculate D2E/DX2 analytically  !
 ! A15   A(4,5,45)             117.8626         calculate D2E/DX2 analytically  !
 ! A16   A(3,6,47)             110.9624         calculate D2E/DX2 analytically  !
 ! A17   A(3,6,48)             109.9923         calculate D2E/DX2 analytically  !
 ! A18   A(3,6,49)             109.8165         calculate D2E/DX2 analytically  !
 ! A19   A(47,6,48)            107.8023         calculate D2E/DX2 analytically  !
 ! A20   A(47,6,49)            108.9227         calculate D2E/DX2 analytically  !
 ! A21   A(48,6,49)            109.3005         calculate D2E/DX2 analytically  !
 ! A22   A(1,7,50)             109.2649         calculate D2E/DX2 analytically  !
 ! A23   A(1,7,51)             111.2246         calculate D2E/DX2 analytically  !
 ! A24   A(1,7,52)             110.0911         calculate D2E/DX2 analytically  !
 ! A25   A(50,7,51)            109.4347         calculate D2E/DX2 analytically  !
 ! A26   A(50,7,52)            108.8424         calculate D2E/DX2 analytically  !
 ! A27   A(51,7,52)            107.9408         calculate D2E/DX2 analytically  !
 ! A28   A(4,8,9)              117.6084         calculate D2E/DX2 analytically  !
 ! A29   A(4,8,15)             118.5384         calculate D2E/DX2 analytically  !
 ! A30   A(9,8,15)             120.2164         calculate D2E/DX2 analytically  !
 ! A31   A(8,9,10)             118.3864         calculate D2E/DX2 analytically  !
 ! A32   A(8,9,11)             122.6716         calculate D2E/DX2 analytically  !
 ! A33   A(10,9,11)            118.9271         calculate D2E/DX2 analytically  !
 ! A34   A(9,10,12)            121.3072         calculate D2E/DX2 analytically  !
 ! A35   A(9,10,53)            119.4469         calculate D2E/DX2 analytically  !
 ! A36   A(12,10,53)           119.2458         calculate D2E/DX2 analytically  !
 ! A37   A(9,11,13)            118.6824         calculate D2E/DX2 analytically  !
 ! A38   A(9,11,21)            122.1491         calculate D2E/DX2 analytically  !
 ! A39   A(13,11,21)           119.1626         calculate D2E/DX2 analytically  !
 ! A40   A(10,12,14)           120.4679         calculate D2E/DX2 analytically  !
 ! A41   A(10,12,54)           119.7503         calculate D2E/DX2 analytically  !
 ! A42   A(14,12,54)           119.7766         calculate D2E/DX2 analytically  !
 ! A43   A(11,13,14)           122.549          calculate D2E/DX2 analytically  !
 ! A44   A(11,13,55)           118.4104         calculate D2E/DX2 analytically  !
 ! A45   A(14,13,55)           119.0351         calculate D2E/DX2 analytically  !
 ! A46   A(12,14,13)           118.0519         calculate D2E/DX2 analytically  !
 ! A47   A(12,14,22)           120.5816         calculate D2E/DX2 analytically  !
 ! A48   A(13,14,22)           121.3625         calculate D2E/DX2 analytically  !
 ! A49   A(8,15,16)            115.9802         calculate D2E/DX2 analytically  !
 ! A50   A(8,15,17)            121.5408         calculate D2E/DX2 analytically  !
 ! A51   A(16,15,17)           122.4777         calculate D2E/DX2 analytically  !
 ! A52   A(15,16,18)           119.0683         calculate D2E/DX2 analytically  !
 ! A53   A(15,16,56)           120.6754         calculate D2E/DX2 analytically  !
 ! A54   A(18,16,56)           120.2539         calculate D2E/DX2 analytically  !
 ! A55   A(15,17,19)           117.3352         calculate D2E/DX2 analytically  !
 ! A56   A(15,17,45)           118.6334         calculate D2E/DX2 analytically  !
 ! A57   A(19,17,45)           123.9906         calculate D2E/DX2 analytically  !
 ! A58   A(16,18,20)           120.0569         calculate D2E/DX2 analytically  !
 ! A59   A(16,18,57)           120.2238         calculate D2E/DX2 analytically  !
 ! A60   A(20,18,57)           119.7163         calculate D2E/DX2 analytically  !
 ! A61   A(17,19,20)           119.348          calculate D2E/DX2 analytically  !
 ! A62   A(17,19,29)           123.5763         calculate D2E/DX2 analytically  !
 ! A63   A(20,19,29)           117.0567         calculate D2E/DX2 analytically  !
 ! A64   A(18,20,19)           121.4536         calculate D2E/DX2 analytically  !
 ! A65   A(18,20,58)           118.3006         calculate D2E/DX2 analytically  !
 ! A66   A(19,20,58)           120.245          calculate D2E/DX2 analytically  !
 ! A67   A(11,21,59)           111.0005         calculate D2E/DX2 analytically  !
 ! A68   A(11,21,60)           110.4688         calculate D2E/DX2 analytically  !
 ! A69   A(11,21,61)           110.3013         calculate D2E/DX2 analytically  !
 ! A70   A(59,21,60)           107.8818         calculate D2E/DX2 analytically  !
 ! A71   A(59,21,61)           108.5824         calculate D2E/DX2 analytically  !
 ! A72   A(60,21,61)           108.5246         calculate D2E/DX2 analytically  !
 ! A73   A(14,22,62)           111.0809         calculate D2E/DX2 analytically  !
 ! A74   A(14,22,63)           110.5953         calculate D2E/DX2 analytically  !
 ! A75   A(14,22,64)           110.0945         calculate D2E/DX2 analytically  !
 ! A76   A(62,22,63)           108.8445         calculate D2E/DX2 analytically  !
 ! A77   A(62,22,64)           108.3874         calculate D2E/DX2 analytically  !
 ! A78   A(63,22,64)           107.7455         calculate D2E/DX2 analytically  !
 ! A79   A(24,23,28)           118.2486         calculate D2E/DX2 analytically  !
 ! A80   A(24,23,45)           113.6996         calculate D2E/DX2 analytically  !
 ! A81   A(28,23,45)           125.4301         calculate D2E/DX2 analytically  !
 ! A82   A(23,24,25)           122.663          calculate D2E/DX2 analytically  !
 ! A83   A(23,24,40)           114.6721         calculate D2E/DX2 analytically  !
 ! A84   A(25,24,40)           122.4254         calculate D2E/DX2 analytically  !
 ! A85   A(24,25,26)           118.0978         calculate D2E/DX2 analytically  !
 ! A86   A(24,25,65)           121.5685         calculate D2E/DX2 analytically  !
 ! A87   A(26,25,65)           120.2466         calculate D2E/DX2 analytically  !
 ! A88   A(25,26,27)           120.8984         calculate D2E/DX2 analytically  !
 ! A89   A(25,26,66)           119.6727         calculate D2E/DX2 analytically  !
 ! A90   A(27,26,66)           119.4192         calculate D2E/DX2 analytically  !
 ! A91   A(26,27,28)           121.1716         calculate D2E/DX2 analytically  !
 ! A92   A(26,27,67)           118.346          calculate D2E/DX2 analytically  !
 ! A93   A(28,27,67)           120.4356         calculate D2E/DX2 analytically  !
 ! A94   A(23,28,27)           118.8536         calculate D2E/DX2 analytically  !
 ! A95   A(23,28,29)           122.0023         calculate D2E/DX2 analytically  !
 ! A96   A(27,28,29)           119.143          calculate D2E/DX2 analytically  !
 ! A97   A(19,29,28)           127.3133         calculate D2E/DX2 analytically  !
 ! A98   A(19,29,30)           116.5318         calculate D2E/DX2 analytically  !
 ! A99   A(28,29,30)           116.0322         calculate D2E/DX2 analytically  !
 ! A100  A(29,30,31)           120.1439         calculate D2E/DX2 analytically  !
 ! A101  A(29,30,32)           119.2888         calculate D2E/DX2 analytically  !
 ! A102  A(31,30,32)           120.5671         calculate D2E/DX2 analytically  !
 ! A103  A(30,31,33)           118.3591         calculate D2E/DX2 analytically  !
 ! A104  A(30,31,36)           119.9359         calculate D2E/DX2 analytically  !
 ! A105  A(33,31,36)           121.7051         calculate D2E/DX2 analytically  !
 ! A106  A(30,32,34)           120.2139         calculate D2E/DX2 analytically  !
 ! A107  A(30,32,68)           118.8784         calculate D2E/DX2 analytically  !
 ! A108  A(34,32,68)           120.9075         calculate D2E/DX2 analytically  !
 ! A109  A(31,33,35)           121.1013         calculate D2E/DX2 analytically  !
 ! A110  A(31,33,69)           119.2032         calculate D2E/DX2 analytically  !
 ! A111  A(35,33,69)           119.6952         calculate D2E/DX2 analytically  !
 ! A112  A(32,34,35)           119.6798         calculate D2E/DX2 analytically  !
 ! A113  A(32,34,70)           120.0179         calculate D2E/DX2 analytically  !
 ! A114  A(35,34,70)           120.3023         calculate D2E/DX2 analytically  !
 ! A115  A(33,35,34)           120.0787         calculate D2E/DX2 analytically  !
 ! A116  A(33,35,71)           119.8027         calculate D2E/DX2 analytically  !
 ! A117  A(34,35,71)           120.1186         calculate D2E/DX2 analytically  !
 ! A118  A(31,36,72)           110.2794         calculate D2E/DX2 analytically  !
 ! A119  A(31,36,73)           110.8542         calculate D2E/DX2 analytically  !
 ! A120  A(31,36,74)           110.1823         calculate D2E/DX2 analytically  !
 ! A121  A(72,36,73)           109.0993         calculate D2E/DX2 analytically  !
 ! A122  A(72,36,74)           107.5055         calculate D2E/DX2 analytically  !
 ! A123  A(73,36,74)           108.8416         calculate D2E/DX2 analytically  !
 ! A124  A(38,37,41)           109.5852         calculate D2E/DX2 analytically  !
 ! A125  A(38,37,75)           128.8859         calculate D2E/DX2 analytically  !
 ! A126  A(41,37,75)           121.5288         calculate D2E/DX2 analytically  !
 ! A127  A(37,38,39)           106.026          calculate D2E/DX2 analytically  !
 ! A128  A(37,38,76)           127.4469         calculate D2E/DX2 analytically  !
 ! A129  A(39,38,76)           126.5186         calculate D2E/DX2 analytically  !
 ! A130  A(38,39,40)           106.2445         calculate D2E/DX2 analytically  !
 ! A131  A(38,39,42)           123.603          calculate D2E/DX2 analytically  !
 ! A132  A(40,39,42)           129.8044         calculate D2E/DX2 analytically  !
 ! A133  A(24,40,39)           134.416          calculate D2E/DX2 analytically  !
 ! A134  A(24,40,41)           114.8757         calculate D2E/DX2 analytically  !
 ! A135  A(39,40,41)           110.7009         calculate D2E/DX2 analytically  !
 ! A136  A(37,41,40)           107.4267         calculate D2E/DX2 analytically  !
 ! A137  A(37,41,45)           133.9463         calculate D2E/DX2 analytically  !
 ! A138  A(40,41,45)           108.3076         calculate D2E/DX2 analytically  !
 ! A139  A(39,42,43)           113.2928         calculate D2E/DX2 analytically  !
 ! A140  A(39,42,44)           112.6035         calculate D2E/DX2 analytically  !
 ! A141  A(39,42,77)           104.4236         calculate D2E/DX2 analytically  !
 ! A142  A(43,42,44)           112.3881         calculate D2E/DX2 analytically  !
 ! A143  A(43,42,77)           107.1017         calculate D2E/DX2 analytically  !
 ! A144  A(44,42,77)           106.2845         calculate D2E/DX2 analytically  !
 ! A145  A(42,43,78)           110.1503         calculate D2E/DX2 analytically  !
 ! A146  A(42,43,79)           111.9988         calculate D2E/DX2 analytically  !
 ! A147  A(42,43,80)           109.504          calculate D2E/DX2 analytically  !
 ! A148  A(78,43,79)           108.2274         calculate D2E/DX2 analytically  !
 ! A149  A(78,43,80)           108.4325         calculate D2E/DX2 analytically  !
 ! A150  A(79,43,80)           108.4421         calculate D2E/DX2 analytically  !
 ! A151  A(42,44,81)           112.0128         calculate D2E/DX2 analytically  !
 ! A152  A(42,44,82)           110.1639         calculate D2E/DX2 analytically  !
 ! A153  A(42,44,83)           109.6725         calculate D2E/DX2 analytically  !
 ! A154  A(81,44,82)           108.2314         calculate D2E/DX2 analytically  !
 ! A155  A(81,44,83)           108.1034         calculate D2E/DX2 analytically  !
 ! A156  A(82,44,83)           108.568          calculate D2E/DX2 analytically  !
 ! A157  A(5,45,17)             90.1785         calculate D2E/DX2 analytically  !
 ! A158  A(5,45,41)             99.6128         calculate D2E/DX2 analytically  !
 ! A159  A(17,45,23)            90.8096         calculate D2E/DX2 analytically  !
 ! A160  A(23,45,41)            80.4307         calculate D2E/DX2 analytically  !
 ! A161  L(5,45,23,41,-1)      180.0435         calculate D2E/DX2 analytically  !
 ! A162  L(17,45,41,23,-1)     171.2403         calculate D2E/DX2 analytically  !
 ! A163  L(5,45,23,41,-2)      188.5058         calculate D2E/DX2 analytically  !
 ! A164  L(17,45,41,23,-2)     187.7378         calculate D2E/DX2 analytically  !
 ! D1    D(5,1,2,3)             -1.741          calculate D2E/DX2 analytically  !
 ! D2    D(5,1,2,46)           179.2633         calculate D2E/DX2 analytically  !
 ! D3    D(7,1,2,3)            175.5649         calculate D2E/DX2 analytically  !
 ! D4    D(7,1,2,46)            -3.4308         calculate D2E/DX2 analytically  !
 ! D5    D(2,1,5,4)              1.7349         calculate D2E/DX2 analytically  !
 ! D6    D(2,1,5,45)          -173.2824         calculate D2E/DX2 analytically  !
 ! D7    D(7,1,5,4)           -175.8139         calculate D2E/DX2 analytically  !
 ! D8    D(7,1,5,45)             9.1688         calculate D2E/DX2 analytically  !
 ! D9    D(2,1,7,50)          -177.9987         calculate D2E/DX2 analytically  !
 ! D10   D(2,1,7,51)            61.0803         calculate D2E/DX2 analytically  !
 ! D11   D(2,1,7,52)           -58.5179         calculate D2E/DX2 analytically  !
 ! D12   D(5,1,7,50)            -0.9867         calculate D2E/DX2 analytically  !
 ! D13   D(5,1,7,51)          -121.9078         calculate D2E/DX2 analytically  !
 ! D14   D(5,1,7,52)           118.494          calculate D2E/DX2 analytically  !
 ! D15   D(1,2,3,4)              1.0443         calculate D2E/DX2 analytically  !
 ! D16   D(1,2,3,6)           -178.6765         calculate D2E/DX2 analytically  !
 ! D17   D(46,2,3,4)          -179.9577         calculate D2E/DX2 analytically  !
 ! D18   D(46,2,3,6)             0.3216         calculate D2E/DX2 analytically  !
 ! D19   D(2,3,4,5)             -0.0145         calculate D2E/DX2 analytically  !
 ! D20   D(2,3,4,8)           -175.0507         calculate D2E/DX2 analytically  !
 ! D21   D(6,3,4,5)            179.7374         calculate D2E/DX2 analytically  !
 ! D22   D(6,3,4,8)              4.7013         calculate D2E/DX2 analytically  !
 ! D23   D(2,3,6,47)          -110.9543         calculate D2E/DX2 analytically  !
 ! D24   D(2,3,6,48)           129.8509         calculate D2E/DX2 analytically  !
 ! D25   D(2,3,6,49)             9.5224         calculate D2E/DX2 analytically  !
 ! D26   D(4,3,6,47)            69.3637         calculate D2E/DX2 analytically  !
 ! D27   D(4,3,6,48)           -49.8311         calculate D2E/DX2 analytically  !
 ! D28   D(4,3,6,49)          -170.1596         calculate D2E/DX2 analytically  !
 ! D29   D(3,4,5,1)             -1.0825         calculate D2E/DX2 analytically  !
 ! D30   D(3,4,5,45)           174.9151         calculate D2E/DX2 analytically  !
 ! D31   D(8,4,5,1)            174.025          calculate D2E/DX2 analytically  !
 ! D32   D(8,4,5,45)            -9.9774         calculate D2E/DX2 analytically  !
 ! D33   D(3,4,8,9)            -68.9507         calculate D2E/DX2 analytically  !
 ! D34   D(3,4,8,15)           132.4754         calculate D2E/DX2 analytically  !
 ! D35   D(5,4,8,9)            116.5941         calculate D2E/DX2 analytically  !
 ! D36   D(5,4,8,15)           -41.9797         calculate D2E/DX2 analytically  !
 ! D37   D(1,5,45,17)         -146.6546         calculate D2E/DX2 analytically  !
 ! D38   D(1,5,45,41)           39.7094         calculate D2E/DX2 analytically  !
 ! D39   D(4,5,45,17)           38.7293         calculate D2E/DX2 analytically  !
 ! D40   D(4,5,45,41)         -134.9067         calculate D2E/DX2 analytically  !
 ! D41   D(4,8,9,10)           126.405          calculate D2E/DX2 analytically  !
 ! D42   D(4,8,9,11)           -52.1792         calculate D2E/DX2 analytically  !
 ! D43   D(15,8,9,10)          -75.3955         calculate D2E/DX2 analytically  !
 ! D44   D(15,8,9,11)          106.0204         calculate D2E/DX2 analytically  !
 ! D45   D(4,8,15,16)         -126.3223         calculate D2E/DX2 analytically  !
 ! D46   D(4,8,15,17)           54.0765         calculate D2E/DX2 analytically  !
 ! D47   D(9,8,15,16)           75.6775         calculate D2E/DX2 analytically  !
 ! D48   D(9,8,15,17)         -103.9237         calculate D2E/DX2 analytically  !
 ! D49   D(8,9,10,12)         -178.8407         calculate D2E/DX2 analytically  !
 ! D50   D(8,9,10,53)            1.0331         calculate D2E/DX2 analytically  !
 ! D51   D(11,9,10,12)          -0.2024         calculate D2E/DX2 analytically  !
 ! D52   D(11,9,10,53)         179.6715         calculate D2E/DX2 analytically  !
 ! D53   D(8,9,11,13)          177.7718         calculate D2E/DX2 analytically  !
 ! D54   D(8,9,11,21)           -3.1162         calculate D2E/DX2 analytically  !
 ! D55   D(10,9,11,13)          -0.8051         calculate D2E/DX2 analytically  !
 ! D56   D(10,9,11,21)         178.3069         calculate D2E/DX2 analytically  !
 ! D57   D(9,10,12,14)           1.1332         calculate D2E/DX2 analytically  !
 ! D58   D(9,10,12,54)        -179.6965         calculate D2E/DX2 analytically  !
 ! D59   D(53,10,12,14)       -178.7409         calculate D2E/DX2 analytically  !
 ! D60   D(53,10,12,54)          0.4293         calculate D2E/DX2 analytically  !
 ! D61   D(9,11,13,14)           0.9324         calculate D2E/DX2 analytically  !
 ! D62   D(9,11,13,55)        -179.9313         calculate D2E/DX2 analytically  !
 ! D63   D(21,11,13,14)       -178.2066         calculate D2E/DX2 analytically  !
 ! D64   D(21,11,13,55)          0.9297         calculate D2E/DX2 analytically  !
 ! D65   D(9,11,21,59)          77.9544         calculate D2E/DX2 analytically  !
 ! D66   D(9,11,21,60)        -162.4186         calculate D2E/DX2 analytically  !
 ! D67   D(9,11,21,61)         -42.4406         calculate D2E/DX2 analytically  !
 ! D68   D(13,11,21,59)       -102.9377         calculate D2E/DX2 analytically  !
 ! D69   D(13,11,21,60)         16.6893         calculate D2E/DX2 analytically  !
 ! D70   D(13,11,21,61)        136.6673         calculate D2E/DX2 analytically  !
 ! D71   D(10,12,14,13)         -1.005          calculate D2E/DX2 analytically  !
 ! D72   D(10,12,14,22)        179.7193         calculate D2E/DX2 analytically  !
 ! D73   D(54,12,14,13)        179.825          calculate D2E/DX2 analytically  !
 ! D74   D(54,12,14,22)          0.5492         calculate D2E/DX2 analytically  !
 ! D75   D(11,13,14,12)         -0.0272         calculate D2E/DX2 analytically  !
 ! D76   D(11,13,14,22)        179.2426         calculate D2E/DX2 analytically  !
 ! D77   D(55,13,14,12)       -179.1584         calculate D2E/DX2 analytically  !
 ! D78   D(55,13,14,22)          0.1115         calculate D2E/DX2 analytically  !
 ! D79   D(12,14,22,62)       -169.4849         calculate D2E/DX2 analytically  !
 ! D80   D(12,14,22,63)        -48.5101         calculate D2E/DX2 analytically  !
 ! D81   D(12,14,22,64)         70.4486         calculate D2E/DX2 analytically  !
 ! D82   D(13,14,22,62)         11.2636         calculate D2E/DX2 analytically  !
 ! D83   D(13,14,22,63)        132.2384         calculate D2E/DX2 analytically  !
 ! D84   D(13,14,22,64)       -108.8028         calculate D2E/DX2 analytically  !
 ! D85   D(8,15,16,18)        -176.4227         calculate D2E/DX2 analytically  !
 ! D86   D(8,15,16,56)           4.1294         calculate D2E/DX2 analytically  !
 ! D87   D(17,15,16,18)          3.1743         calculate D2E/DX2 analytically  !
 ! D88   D(17,15,16,56)       -176.2736         calculate D2E/DX2 analytically  !
 ! D89   D(8,15,17,19)         173.5424         calculate D2E/DX2 analytically  !
 ! D90   D(8,15,17,45)          -8.685          calculate D2E/DX2 analytically  !
 ! D91   D(16,15,17,19)         -6.0325         calculate D2E/DX2 analytically  !
 ! D92   D(16,15,17,45)        171.74           calculate D2E/DX2 analytically  !
 ! D93   D(15,16,18,20)          1.0701         calculate D2E/DX2 analytically  !
 ! D94   D(15,16,18,57)       -179.5619         calculate D2E/DX2 analytically  !
 ! D95   D(56,16,18,20)       -179.4797         calculate D2E/DX2 analytically  !
 ! D96   D(56,16,18,57)         -0.1117         calculate D2E/DX2 analytically  !
 ! D97   D(15,17,19,20)          4.732          calculate D2E/DX2 analytically  !
 ! D98   D(15,17,19,29)       -173.631          calculate D2E/DX2 analytically  !
 ! D99   D(45,17,19,20)       -172.9099         calculate D2E/DX2 analytically  !
 ! D100  D(45,17,19,29)          8.727          calculate D2E/DX2 analytically  !
 ! D101  D(15,17,45,5)         -28.1193         calculate D2E/DX2 analytically  !
 ! D102  D(15,17,45,23)        160.2092         calculate D2E/DX2 analytically  !
 ! D103  D(19,17,45,5)         149.494          calculate D2E/DX2 analytically  !
 ! D104  D(19,17,45,23)        -22.1774         calculate D2E/DX2 analytically  !
 ! D105  D(16,18,20,19)         -2.2302         calculate D2E/DX2 analytically  !
 ! D106  D(16,18,20,58)        178.0977         calculate D2E/DX2 analytically  !
 ! D107  D(57,18,20,19)        178.3986         calculate D2E/DX2 analytically  !
 ! D108  D(57,18,20,58)         -1.2735         calculate D2E/DX2 analytically  !
 ! D109  D(17,19,20,18)         -0.7767         calculate D2E/DX2 analytically  !
 ! D110  D(17,19,20,58)        178.8891         calculate D2E/DX2 analytically  !
 ! D111  D(29,19,20,18)        177.6919         calculate D2E/DX2 analytically  !
 ! D112  D(29,19,20,58)         -2.6423         calculate D2E/DX2 analytically  !
 ! D113  D(17,19,29,28)          9.8921         calculate D2E/DX2 analytically  !
 ! D114  D(17,19,29,30)       -174.3202         calculate D2E/DX2 analytically  !
 ! D115  D(20,19,29,28)       -168.5057         calculate D2E/DX2 analytically  !
 ! D116  D(20,19,29,30)          7.282          calculate D2E/DX2 analytically  !
 ! D117  D(28,23,24,25)          2.6175         calculate D2E/DX2 analytically  !
 ! D118  D(28,23,24,40)        177.1158         calculate D2E/DX2 analytically  !
 ! D119  D(45,23,24,25)       -160.041          calculate D2E/DX2 analytically  !
 ! D120  D(45,23,24,40)         14.4574         calculate D2E/DX2 analytically  !
 ! D121  D(24,23,28,27)         -0.4942         calculate D2E/DX2 analytically  !
 ! D122  D(24,23,28,29)        179.8972         calculate D2E/DX2 analytically  !
 ! D123  D(45,23,28,27)        159.936          calculate D2E/DX2 analytically  !
 ! D124  D(45,23,28,29)        -19.6726         calculate D2E/DX2 analytically  !
 ! D125  D(24,23,45,17)       -170.9877         calculate D2E/DX2 analytically  !
 ! D126  D(24,23,45,41)          1.2745         calculate D2E/DX2 analytically  !
 ! D127  D(28,23,45,17)         27.8106         calculate D2E/DX2 analytically  !
 ! D128  D(28,23,45,41)       -159.9272         calculate D2E/DX2 analytically  !
 ! D129  D(23,24,25,26)         -2.7422         calculate D2E/DX2 analytically  !
 ! D130  D(23,24,25,65)        173.8696         calculate D2E/DX2 analytically  !
 ! D131  D(40,24,25,26)       -176.8179         calculate D2E/DX2 analytically  !
 ! D132  D(40,24,25,65)         -0.2061         calculate D2E/DX2 analytically  !
 ! D133  D(23,24,40,39)        147.9928         calculate D2E/DX2 analytically  !
 ! D134  D(23,24,40,41)        -30.8941         calculate D2E/DX2 analytically  !
 ! D135  D(25,24,40,39)        -37.4942         calculate D2E/DX2 analytically  !
 ! D136  D(25,24,40,41)        143.6189         calculate D2E/DX2 analytically  !
 ! D137  D(24,25,26,27)          0.7376         calculate D2E/DX2 analytically  !
 ! D138  D(24,25,26,66)        179.6003         calculate D2E/DX2 analytically  !
 ! D139  D(65,25,26,27)       -175.9207         calculate D2E/DX2 analytically  !
 ! D140  D(65,25,26,66)          2.942          calculate D2E/DX2 analytically  !
 ! D141  D(25,26,27,28)          1.3127         calculate D2E/DX2 analytically  !
 ! D142  D(25,26,27,67)        178.8353         calculate D2E/DX2 analytically  !
 ! D143  D(66,26,27,28)       -177.5529         calculate D2E/DX2 analytically  !
 ! D144  D(66,26,27,67)         -0.0302         calculate D2E/DX2 analytically  !
 ! D145  D(26,27,28,23)         -1.417          calculate D2E/DX2 analytically  !
 ! D146  D(26,27,28,29)        178.203          calculate D2E/DX2 analytically  !
 ! D147  D(67,27,28,23)       -178.8882         calculate D2E/DX2 analytically  !
 ! D148  D(67,27,28,29)          0.7318         calculate D2E/DX2 analytically  !
 ! D149  D(23,28,29,19)         -4.373          calculate D2E/DX2 analytically  !
 ! D150  D(23,28,29,30)        179.8212         calculate D2E/DX2 analytically  !
 ! D151  D(27,28,29,19)        176.0195         calculate D2E/DX2 analytically  !
 ! D152  D(27,28,29,30)          0.2137         calculate D2E/DX2 analytically  !
 ! D153  D(19,29,30,31)        -93.5538         calculate D2E/DX2 analytically  !
 ! D154  D(19,29,30,32)         86.6047         calculate D2E/DX2 analytically  !
 ! D155  D(28,29,30,31)         82.7184         calculate D2E/DX2 analytically  !
 ! D156  D(28,29,30,32)        -97.123          calculate D2E/DX2 analytically  !
 ! D157  D(29,30,31,33)       -179.735          calculate D2E/DX2 analytically  !
 ! D158  D(29,30,31,36)          0.2808         calculate D2E/DX2 analytically  !
 ! D159  D(32,30,31,33)          0.1045         calculate D2E/DX2 analytically  !
 ! D160  D(32,30,31,36)       -179.8798         calculate D2E/DX2 analytically  !
 ! D161  D(29,30,32,34)        179.8431         calculate D2E/DX2 analytically  !
 ! D162  D(29,30,32,68)         -0.3413         calculate D2E/DX2 analytically  !
 ! D163  D(31,30,32,34)          0.0023         calculate D2E/DX2 analytically  !
 ! D164  D(31,30,32,68)        179.8179         calculate D2E/DX2 analytically  !
 ! D165  D(30,31,33,35)         -0.1176         calculate D2E/DX2 analytically  !
 ! D166  D(30,31,33,69)       -179.9514         calculate D2E/DX2 analytically  !
 ! D167  D(36,31,33,35)        179.8663         calculate D2E/DX2 analytically  !
 ! D168  D(36,31,33,69)          0.0326         calculate D2E/DX2 analytically  !
 ! D169  D(30,31,36,72)         54.0698         calculate D2E/DX2 analytically  !
 ! D170  D(30,31,36,73)        175.0034         calculate D2E/DX2 analytically  !
 ! D171  D(30,31,36,74)        -64.4507         calculate D2E/DX2 analytically  !
 ! D172  D(33,31,36,72)       -125.9139         calculate D2E/DX2 analytically  !
 ! D173  D(33,31,36,73)         -4.9804         calculate D2E/DX2 analytically  !
 ! D174  D(33,31,36,74)        115.5655         calculate D2E/DX2 analytically  !
 ! D175  D(30,32,34,35)         -0.0983         calculate D2E/DX2 analytically  !
 ! D176  D(30,32,34,70)        179.9573         calculate D2E/DX2 analytically  !
 ! D177  D(68,32,34,35)       -179.9101         calculate D2E/DX2 analytically  !
 ! D178  D(68,32,34,70)          0.1456         calculate D2E/DX2 analytically  !
 ! D179  D(31,33,35,34)          0.0237         calculate D2E/DX2 analytically  !
 ! D180  D(31,33,35,71)       -179.8874         calculate D2E/DX2 analytically  !
 ! D181  D(69,33,35,34)        179.8566         calculate D2E/DX2 analytically  !
 ! D182  D(69,33,35,71)         -0.0545         calculate D2E/DX2 analytically  !
 ! D183  D(32,34,35,33)          0.0857         calculate D2E/DX2 analytically  !
 ! D184  D(32,34,35,71)        179.9966         calculate D2E/DX2 analytically  !
 ! D185  D(70,34,35,33)       -179.9701         calculate D2E/DX2 analytically  !
 ! D186  D(70,34,35,71)         -0.0593         calculate D2E/DX2 analytically  !
 ! D187  D(41,37,38,39)         -0.2219         calculate D2E/DX2 analytically  !
 ! D188  D(41,37,38,76)       -179.2108         calculate D2E/DX2 analytically  !
 ! D189  D(75,37,38,39)        179.874          calculate D2E/DX2 analytically  !
 ! D190  D(75,37,38,76)          0.8851         calculate D2E/DX2 analytically  !
 ! D191  D(38,37,41,40)         -0.5882         calculate D2E/DX2 analytically  !
 ! D192  D(38,37,41,45)        138.8605         calculate D2E/DX2 analytically  !
 ! D193  D(75,37,41,40)        179.3242         calculate D2E/DX2 analytically  !
 ! D194  D(75,37,41,45)        -41.2271         calculate D2E/DX2 analytically  !
 ! D195  D(37,38,39,40)          0.9324         calculate D2E/DX2 analytically  !
 ! D196  D(37,38,39,42)       -172.8817         calculate D2E/DX2 analytically  !
 ! D197  D(76,38,39,40)        179.9335         calculate D2E/DX2 analytically  !
 ! D198  D(76,38,39,42)          6.1194         calculate D2E/DX2 analytically  !
 ! D199  D(38,39,40,24)        179.7374         calculate D2E/DX2 analytically  !
 ! D200  D(38,39,40,41)         -1.3421         calculate D2E/DX2 analytically  !
 ! D201  D(42,39,40,24)         -6.9714         calculate D2E/DX2 analytically  !
 ! D202  D(42,39,40,41)        171.9491         calculate D2E/DX2 analytically  !
 ! D203  D(38,39,42,43)        135.9544         calculate D2E/DX2 analytically  !
 ! D204  D(38,39,42,44)        -95.1121         calculate D2E/DX2 analytically  !
 ! D205  D(38,39,42,77)         19.7668         calculate D2E/DX2 analytically  !
 ! D206  D(40,39,42,43)        -36.3065         calculate D2E/DX2 analytically  !
 ! D207  D(40,39,42,44)         92.627          calculate D2E/DX2 analytically  !
 ! D208  D(40,39,42,77)       -152.4941         calculate D2E/DX2 analytically  !
 ! D209  D(24,40,41,37)       -179.6313         calculate D2E/DX2 analytically  !
 ! D210  D(24,40,41,45)         29.9094         calculate D2E/DX2 analytically  !
 ! D211  D(39,40,41,37)          1.2186         calculate D2E/DX2 analytically  !
 ! D212  D(39,40,41,45)       -149.2407         calculate D2E/DX2 analytically  !
 ! D213  D(37,41,45,5)          32.2676         calculate D2E/DX2 analytically  !
 ! D214  D(37,41,45,23)       -156.2382         calculate D2E/DX2 analytically  !
 ! D215  D(40,41,45,5)         171.4723         calculate D2E/DX2 analytically  !
 ! D216  D(40,41,45,23)        -17.0335         calculate D2E/DX2 analytically  !
 ! D217  D(39,42,43,78)        -50.0253         calculate D2E/DX2 analytically  !
 ! D218  D(39,42,43,79)         70.4781         calculate D2E/DX2 analytically  !
 ! D219  D(39,42,43,80)       -169.187          calculate D2E/DX2 analytically  !
 ! D220  D(44,42,43,78)       -179.0691         calculate D2E/DX2 analytically  !
 ! D221  D(44,42,43,79)        -58.5656         calculate D2E/DX2 analytically  !
 ! D222  D(44,42,43,80)         61.7692         calculate D2E/DX2 analytically  !
 ! D223  D(77,42,43,78)         64.5694         calculate D2E/DX2 analytically  !
 ! D224  D(77,42,43,79)       -174.9272         calculate D2E/DX2 analytically  !
 ! D225  D(77,42,43,80)        -54.5923         calculate D2E/DX2 analytically  !
 ! D226  D(39,42,44,81)        -68.16           calculate D2E/DX2 analytically  !
 ! D227  D(39,42,44,82)         52.3672         calculate D2E/DX2 analytically  !
 ! D228  D(39,42,44,83)        171.8083         calculate D2E/DX2 analytically  !
 ! D229  D(43,42,44,81)         61.2413         calculate D2E/DX2 analytically  !
 ! D230  D(43,42,44,82)       -178.2315         calculate D2E/DX2 analytically  !
 ! D231  D(43,42,44,83)        -58.7904         calculate D2E/DX2 analytically  !
 ! D232  D(77,42,44,81)        178.0921         calculate D2E/DX2 analytically  !
 ! D233  D(77,42,44,82)        -61.3806         calculate D2E/DX2 analytically  !
 ! D234  D(77,42,44,83)         58.0605         calculate D2E/DX2 analytically  !
 --------------------------------------------------------------------------------
 Trust Radius=3.00D-01 FncErr=1.00D-07 GrdErr=1.00D-06 EigMax=2.50D+02 EigMin=1.00D-04
 Number of steps in this run=    498 maximum allowed number of steps=    498.
 GradGradGradGradGradGradGradGradGradGradGradGradGradGradGradGradGradGrad

 Leave Link  103 at Sat Feb  7 17:23:17 2026, MaxMem= 10737418240 cpu:               0.6 elap:               0.0
 (Enter /home/software/g16-shuai/g16/l202.exe)
 Symmetry turned off by external request.
 Stoichiometry    C38H38N6Pt
 Framework group  C1[X(C38H38N6Pt)]
 Deg. of freedom   243
 Full point group                 C1      NOp   1
                          Input orientation:                          
 ---------------------------------------------------------------------
 Center     Atomic      Atomic             Coordinates (Angstroms)
 Number     Number       Type             X           Y           Z
 ---------------------------------------------------------------------
      1          6           0        1.400053    2.522695    2.945024
      2          6           0        2.747734    2.673060    3.285721
      3          6           0        3.425737    1.676980    2.607554
      4          7           0        2.494687    1.009222    1.894792
      5          7           0        1.277865    1.520548    2.081477
      6          6           0        4.861422    1.307963    2.584020
      7          6           0        0.214259    3.263348    3.451926
      8          7           0        2.736159   -0.114370    1.157972
      9          6           0        3.528272    0.024172   -0.014284
     10          6           0        4.643879   -0.795820   -0.159987
     11          6           0        3.247485    0.968454   -1.008787
     12          6           0        5.467795   -0.696088   -1.261877
     13          6           0        4.103986    1.064000   -2.098439
     14          6           0        5.213902    0.248489   -2.247832
     15          6           0        1.845540   -1.235411    1.301876
     16          6           0        2.442593   -2.451340    1.609273
     17          6           0        0.460598   -1.098516    1.131175
     18          6           0        1.657067   -3.582835    1.688341
     19          6           0       -0.315324   -2.278124    1.154247
     20          6           0        0.303799   -3.502019    1.442298
     21          6           0        2.047888    1.860374   -0.943913
     22          6           0        6.110710    0.363214   -3.442605
     23          6           0       -1.935017    0.001246    0.115383
     24          6           0       -2.786837    0.978599   -0.415893
     25          6           0       -4.130505    0.743585   -0.668303
     26          6           0       -4.624638   -0.526200   -0.434155
     27          6           0       -3.807011   -1.526514    0.051570
     28          6           0       -2.458558   -1.281632    0.348597
     29          7           0       -1.683692   -2.308990    0.870692
     30          6           0       -2.345975   -3.559307    1.059617
     31          6           0       -2.492822   -4.445404   -0.012546
     32          6           0       -2.842886   -3.881373    2.314221
     33          6           0       -3.147410   -5.647725    0.211246
     34          6           0       -3.491120   -5.086996    2.518101
     35          6           0       -3.643477   -5.969940    1.463553
     36          6           0       -1.948893   -4.084741   -1.359479
     37          6           0       -0.813744    3.776236    0.081998
     38          6           0       -1.480321    4.279637   -1.028347
     39          6           0       -2.356870    3.282946   -1.433424
     40          7           0       -2.198328    2.262167   -0.560792
     41          7           0       -1.251935    2.555849    0.346922
     42          6           0       -3.165893    3.351052   -2.695339
     43          6           0       -3.172186    2.039551   -3.480932
     44          6           0       -4.578271    3.897750   -2.460768
     45         78           0       -0.303056    0.736236    0.939667
     46          1           0        3.168619    3.399757    3.950219
     47          1           0        5.306441    1.533664    1.614256
     48          1           0        4.974166    0.239426    2.761511
     49          1           0        5.395710    1.858069    3.353406
     50          1           0       -0.686681    2.857963    2.991667
     51          1           0        0.288404    4.327012    3.228322
     52          1           0        0.137637    3.152238    4.532916
     53          1           0        4.870841   -1.521822    0.602942
     54          1           0        6.324174   -1.348505   -1.351713
     55          1           0        3.883479    1.795898   -2.863720
     56          1           0        3.502660   -2.512429    1.792869
     57          1           0        2.100720   -4.536669    1.932994
     58          1           0       -0.278191   -4.409433    1.481359
     59          1           0        2.210420    2.684551   -0.246804
     60          1           0        1.837691    2.286885   -1.922138
     61          1           0        1.157510    1.285298   -0.610845
     62          1           0        5.885141    1.258598   -4.016273
     63          1           0        7.154851    0.395767   -3.136000
     64          1           0        5.982001   -0.502663   -4.091964
     65          1           0       -4.790887    1.532605   -0.984611
     66          1           0       -5.668598   -0.735657   -0.615876
     67          1           0       -4.240111   -2.497214    0.237374
     68          1           0       -2.711735   -3.178383    3.123295
     69          1           0       -3.267824   -6.343029   -0.607554
     70          1           0       -3.876024   -5.334732    3.496031
     71          1           0       -4.148150   -6.912801    1.614724
     72          1           0       -0.892861   -3.828407   -1.283928
     73          1           0       -2.065569   -4.909768   -2.057491
     74          1           0       -2.470480   -3.212898   -1.754567
     75          1           0       -0.055730    4.242388    0.680947
     76          1           0       -1.340525    5.233869   -1.494752
     77          1           0       -2.646399    4.095223   -3.313460
     78          1           0       -2.154908    1.676359   -3.612206
     79          1           0       -3.746088    1.267511   -2.978569
     80          1           0       -3.607122    2.207029   -4.463813
     81          1           0       -5.188939    3.212210   -1.881182
     82          1           0       -4.530049    4.844879   -1.927365
     83          1           0       -5.070266    4.063203   -3.416551
 ---------------------------------------------------------------------
 Rotational constants (GHZ):           0.0824151           0.0641739           0.0484673
 Leave Link  202 at Sat Feb  7 17:23:17 2026, MaxMem= 10737418240 cpu:               1.5 elap:               0.0
 (Enter /home/software/g16-shuai/g16/l301.exe)
 Standard basis: def2SVP (5D, 7F)
 Ernie: Thresh=  0.10000D-02 Tol=  0.10000D-05 Strict=F.
   838 basis functions,  1431 primitive gaussians,   887 cartesian basis functions
   163 alpha electrons      163 beta electrons
       nuclear repulsion energy      6009.0115611517 Hartrees.
 IExCor= 2523 DFT=T Ex+Corr=TPSSh ExCW=0 ScaHFX=  0.100000
 ScaDFX=  0.900000  0.900000  1.000000  1.000000 ScalE2=  1.000000  1.000000
 IRadAn=      5 IRanWt=     -1 IRanGd=            0 ICorTp=0 IEmpDi=141
 NAtoms=   83 NActive=   83 NUniq=   83 SFac= 1.00D+00 NAtFMM=   60 NAOKFM=T Big=T
 Integral buffers will be    131072 words long.
 Raffenetti 2 integral format.
 Two-electron integral symmetry is turned off.
 R6DIni: Non-standard D2/D3 S6 parameter, value=     1.000000
 R6DIni: Non-standard D2/D3 S8 parameter, value=     2.238200
 R6DIni: Non-standard D3BJ A1 parameter, value=     0.452900
 R6DIni: Non-standard D3BJ A2 parameter, value=     4.655000
 R6Disp:  Grimme-D3(BJ) Dispersion energy=       -0.1739448845 Hartrees.
 Nuclear repulsion after empirical dispersion term =     6008.8376162672 Hartrees.
 Force inversion solution in PCM.
 ------------------------------------------------------------------------------
 Polarizable Continuum Model (PCM)
 =================================
 Model                : PCM.
 Atomic radii         : UFF (Universal Force Field).
 Polarization charges : Total charges.
 Charge compensation  : None.
 Solution method      : Matrix inversion.
 Cavity type          : Scaled VdW (van der Waals Surface) (Alpha=1.100).
 Cavity algorithm     : GePol (No added spheres)
                        Default sphere list used, NSphG=   83.
                        Lebedev-Laikov grids with approx.  5.0 points / Ang**2.
                        Smoothing algorithm: York/Karplus (Gamma=1.0000).
                        Polarization charges: spherical gaussians, with
                                              point-specific exponents (IZeta= 3).
                        Self-potential: point-specific (ISelfS= 7).
                        Self-field    : sphere-specific E.n sum rule (ISelfD= 2).
 1st derivatives      : Analytical E(r).r(x)/FMM algorithm (CHGder, D1EAlg=3).
                        Cavity 1st derivative terms included.
 2nd derivatives      : Analytical E(r).r(xy)/FMM algorithm (CHGder, D2EAlg=3).
                        Cavity 2nd derivative terms included.
 Solvent              : Dichloromethane, Eps=   8.930000 Eps(inf)=   2.028346
 ------------------------------------------------------------------------------
 GePol: Number of generator spheres                  =      83
 GePol: Total number of spheres                      =      83
 GePol: Number of exposed spheres                    =      83 (100.00%)
 GePol: Number of points                             =    5226
 GePol: Average weight of points                     =       0.13
 GePol: Minimum weight of points                     =   0.75D-11
 GePol: Maximum weight of points                     =    0.21340
 GePol: Number of points with low weight             =     370
 GePol: Fraction of low-weight points (<1% of avg)   =       7.08%
 GePol: Cavity surface area                          =    665.589 Ang**2
 GePol: Cavity volume                                =    811.981 Ang**3
 Leave Link  301 at Sat Feb  7 17:23:17 2026, MaxMem= 10737418240 cpu:               5.0 elap:               0.1
 (Enter /home/software/g16-shuai/g16/l302.exe)
 NPDir=0 NMtPBC=     1 NCelOv=     1 NCel=       1 NClECP=     1 NCelD=      1
         NCelK=      1 NCelE2=     1 NClLst=     1 CellRange=     0.0.
 One-electron integrals computed using PRISM.
   1 Symmetry operations used in ECPInt.
 ECPInt:  NShTT=   76245 NPrTT=  272652 LenC2=   61748 LenP2D=  142158.
 LDataN:  DoStor=T MaxTD1= 8 Len=  415
 NBasis=   838 RedAO= T EigKep=  1.80D-04  NBF=   838
 NBsUse=   838 1.00D-06 EigRej= -1.00D+00 NBFU=   838
 Precomputing XC quadrature grid using
 IXCGrd= 4 IRadAn=           5 IRanWt=          -1 IRanGd=           0 AccXCQ= 0.00D+00.
 Defaulting to unpruned grid for atomic number  78.
 Generated NRdTot=       0 NPtTot=           0 NUsed=           0 NTot=          32
 NSgBfM=   864   864   864   864   864 MxSgAt=    83 MxSgA2=    83.
 Leave Link  302 at Sat Feb  7 17:23:19 2026, MaxMem= 10737418240 cpu:              80.4 elap:               1.6
 (Enter /home/software/g16-shuai/g16/l303.exe)
 DipDrv:  MaxL=1.
 Leave Link  303 at Sat Feb  7 17:23:19 2026, MaxMem= 10737418240 cpu:               5.9 elap:               0.2
 (Enter /home/software/g16-shuai/g16/l401.exe)
 ExpMin= 4.90D-02 ExpMax= 1.71D+03 ExpMxC= 2.58D+02 IAcc=3 IRadAn=         5 AccDes= 0.00D+00
 Harris functional with IExCor= 1009 and IRadAn=       5 diagonalized for initial guess.
 HarFok:  IExCor= 1009 AccDes= 0.00D+00 IRadAn=         5 IDoV= 1 UseB2=F ITyADJ=14
 ICtDFT=  3500011 ScaDFX=  1.000000  1.000000  1.000000  1.000000
 Defaulting to unpruned grid for atomic number  78.
 FoFCou: FMM=F IPFlag=           0 FMFlag=      100000 FMFlg1=        2001
         NFxFlg=           0 DoJE=T BraDBF=F KetDBF=T FulRan=T
         wScrn=  0.000000 ICntrl=       500 IOpCl=  0 I1Cent=   200000004 NGrid=           0
         NMat0=    1 NMatS0=      1 NMatT0=    0 NMatD0=    1 NMtDS0=    0 NMtDT0=    0
 Symmetry not used in FoFCou.
 Harris En= -1916.08460530814    
 JPrj=0 DoOrth=F DoCkMO=F.
 Leave Link  401 at Sat Feb  7 17:23:22 2026, MaxMem= 10737418240 cpu:             148.6 elap:               2.7
 (Enter /home/software/g16-shuai/g16/l502.exe)
 Two-electron integral symmetry not used.
 Closed shell SCF:
 Using DIIS extrapolation, IDIIS=  1040.
 NGot= 10737418240 LenX= 10735785947 LenY= 10734998291
 Requested convergence on RMS density matrix=1.00D-08 within 128 cycles.
 Requested convergence on MAX density matrix=1.00D-06.
 Requested convergence on             energy=1.00D-06.
 No special actions if energy rises.
 Fock matrices will be formed incrementally for  20 cycles.

 Cycle   1  Pass 1  IDiag  1:
 FoFJK:  IHMeth= 1 ICntrl=       0 DoSepK=F KAlg= 0 I1Cent=           0 FoldK=F
 IRaf= 940000000 NMat=       1 IRICut=       1 DoRegI=T DoRafI=F ISym2E= 0 IDoP0=0 IntGTp=1.
 FoFCou: FMM=T IPFlag=           0 FMFlag=      100000 FMFlg1=        2001
         NFxFlg=           0 DoJE=F BraDBF=F KetDBF=F FulRan=T
         wScrn=  0.000000 ICntrl=         0 IOpCl=  0 I1Cent=           0 NGrid=           0
         NMat0=    1 NMatS0=      1 NMatT0=    0 NMatD0=    1 NMtDS0=    0 NMtDT0=    0
 Symmetry not used in FoFCou.
 FMM levels:  10  Number of levels for PrismC:   9
 Defaulting to unpruned grid for atomic number  78.
 Defaulting to unpruned grid for atomic number  78.
 Defaulting to unpruned grid for atomic number  78.
 Defaulting to unpruned grid for atomic number  78.
 Defaulting to unpruned grid for atomic number  78.
 Defaulting to unpruned grid for atomic number  78.
 Defaulting to unpruned grid for atomic number  78.
 Defaulting to unpruned grid for atomic number  78.
 Defaulting to unpruned grid for atomic number  78.
 Defaulting to unpruned grid for atomic number  78.
 Defaulting to unpruned grid for atomic number  78.
 Defaulting to unpruned grid for atomic number  78.
 Defaulting to unpruned grid for atomic number  78.
 Defaulting to unpruned grid for atomic number  78.
 Defaulting to unpruned grid for atomic number  78.
 Defaulting to unpruned grid for atomic number  78.
 Defaulting to unpruned grid for atomic number  78.
 Defaulting to unpruned grid for atomic number  78.
 Defaulting to unpruned grid for atomic number  78.
 Defaulting to unpruned grid for atomic number  78.
 Defaulting to unpruned grid for atomic number  78.
 Defaulting to unpruned grid for atomic number  78.
 Defaulting to unpruned grid for atomic number  78.
 Defaulting to unpruned grid for atomic number  78.
 Defaulting to unpruned grid for atomic number  78.
 Defaulting to unpruned grid for atomic number  78.
 Defaulting to unpruned grid for atomic number  78.
 Defaulting to unpruned grid for atomic number  78.
 Defaulting to unpruned grid for atomic number  78.
 Defaulting to unpruned grid for atomic number  78.
 Defaulting to unpruned grid for atomic number  78.
 Defaulting to unpruned grid for atomic number  78.
 Defaulting to unpruned grid for atomic number  78.
 Defaulting to unpruned grid for atomic number  78.
 Defaulting to unpruned grid for atomic number  78.
 Defaulting to unpruned grid for atomic number  78.
 Defaulting to unpruned grid for atomic number  78.
 Defaulting to unpruned grid for atomic number  78.
 Defaulting to unpruned grid for atomic number  78.
 Defaulting to unpruned grid for atomic number  78.
 Defaulting to unpruned grid for atomic number  78.
 Defaulting to unpruned grid for atomic number  78.
 Defaulting to unpruned grid for atomic number  78.
 Defaulting to unpruned grid for atomic number  78.
 Defaulting to unpruned grid for atomic number  78.
 Defaulting to unpruned grid for atomic number  78.
 Defaulting to unpruned grid for atomic number  78.
 Defaulting to unpruned grid for atomic number  78.
 Defaulting to unpruned grid for atomic number  78.
 Defaulting to unpruned grid for atomic number  78.
 Defaulting to unpruned grid for atomic number  78.
 Defaulting to unpruned grid for atomic number  78.
 Defaulting to unpruned grid for atomic number  78.
 Defaulting to unpruned grid for atomic number  78.
 Defaulting to unpruned grid for atomic number  78.
 Defaulting to unpruned grid for atomic number  78.
 Inv3:  Mode=1 IEnd=    81933228.
 Iteration    1 A*A^-1 deviation from unit magnitude is 6.88D-15 for   5211.
 Iteration    1 A*A^-1 deviation from orthogonality  is 3.85D-15 for   3614   2133.
 Iteration    1 A^-1*A deviation from unit magnitude is 6.88D-15 for   5211.
 Iteration    1 A^-1*A deviation from orthogonality  is 4.61D-15 for   3942   3919.
 E= -1915.71274180324    
 DIIS: error= 2.45D-02 at cycle   1 NSaved=   1.
 NSaved= 1 IEnMin= 1 EnMin= -1915.71274180324     IErMin= 1 ErrMin= 2.45D-02
 ErrMax= 2.45D-02  0.00D+00 EMaxC= 1.00D-01 BMatC= 2.27D+00 BMatP= 2.27D+00
 IDIUse=3 WtCom= 7.55D-01 WtEn= 2.45D-01
 Coeff-Com:  0.100D+01
 Coeff-En:   0.100D+01
 Coeff:      0.100D+01
 Gap=     0.744 Goal=   None    Shift=    0.000
 GapD=    0.744 DampG=2.000 DampE=0.250 DampFc=0.5000 IDamp=-1.
 Damping current iteration by 5.00D-01
 RMSDP=1.39D-02 MaxDP=3.24D+00              OVMax= 7.95D-01

 Cycle   2  Pass 1  IDiag  1:
 RMSU=  6.95D-03    CP:  1.02D+00
 E= -1915.10327847962     Delta-E=        0.609463323623 Rises=F Damp=T
 DIIS: error= 1.24D-02 at cycle   2 NSaved=   2.
 NSaved= 2 IEnMin= 1 EnMin= -1915.71274180324     IErMin= 2 ErrMin= 1.24D-02
 ErrMax= 1.24D-02  0.00D+00 EMaxC= 1.00D-01 BMatC= 8.55D-01 BMatP= 2.27D+00
 IDIUse=3 WtCom= 8.76D-01 WtEn= 1.24D-01
 Coeff-Com:  0.348D+00 0.652D+00
 Coeff-En:   0.581D+00 0.419D+00
 Coeff:      0.377D+00 0.623D+00
 Gap=    -0.347 Goal=   None    Shift=    0.000
 RMSDP=7.32D-03 MaxDP=1.69D+00 DE= 6.09D-01 OVMax= 5.66D-01

 Cycle   3  Pass 1  IDiag  1:
 RMSU=  2.65D-03    CP:  9.38D-01  2.90D-02
 E= -1917.10841380845     Delta-E=       -2.005135328833 Rises=F Damp=F
 DIIS: error= 1.39D-02 at cycle   3 NSaved=   3.
 NSaved= 3 IEnMin= 3 EnMin= -1917.10841380845     IErMin= 2 ErrMin= 1.24D-02
 ErrMax= 1.39D-02  0.00D+00 EMaxC= 1.00D-01 BMatC= 6.58D-01 BMatP= 8.55D-01
 IDIUse=3 WtCom= 8.61D-01 WtEn= 1.39D-01
 EnCoef did     2 forward-backward iterations
 Coeff-Com:  0.165D+00 0.443D+00 0.392D+00
 Coeff-En:   0.501D-01 0.485D-01 0.901D+00
 Coeff:      0.149D+00 0.388D+00 0.463D+00
 Gap=     0.145 Goal=   None    Shift=    0.000
 RMSDP=1.87D-03 MaxDP=1.14D-01 DE=-2.01D+00 OVMax= 2.72D-01

 Cycle   4  Pass 1  IDiag  1:
 RMSU=  1.58D-03    CP:  9.40D-01  4.50D-02  6.24D-01
 E= -1917.73925359257     Delta-E=       -0.630839784114 Rises=F Damp=F
 DIIS: error= 6.61D-03 at cycle   4 NSaved=   4.
 NSaved= 4 IEnMin= 4 EnMin= -1917.73925359257     IErMin= 4 ErrMin= 6.61D-03
 ErrMax= 6.61D-03  0.00D+00 EMaxC= 1.00D-01 BMatC= 1.02D-01 BMatP= 6.58D-01
 IDIUse=3 WtCom= 9.34D-01 WtEn= 6.61D-02
 Coeff-Com:  0.168D-01 0.120D+00 0.279D+00 0.584D+00
 Coeff-En:   0.000D+00 0.000D+00 0.123D+00 0.877D+00
 Coeff:      0.157D-01 0.112D+00 0.269D+00 0.604D+00
 Gap=     0.122 Goal=   None    Shift=    0.000
 RMSDP=6.13D-04 MaxDP=5.12D-02 DE=-6.31D-01 OVMax= 7.42D-02

 Cycle   5  Pass 1  IDiag  1:
 RMSU=  5.18D-04    CP:  9.39D-01  4.31D-02  6.98D-01  8.34D-01
 E= -1917.81182387974     Delta-E=       -0.072570287176 Rises=F Damp=F
 DIIS: error= 3.09D-03 at cycle   5 NSaved=   5.
 NSaved= 5 IEnMin= 5 EnMin= -1917.81182387974     IErMin= 5 ErrMin= 3.09D-03
 ErrMax= 3.09D-03  0.00D+00 EMaxC= 1.00D-01 BMatC= 2.46D-02 BMatP= 1.02D-01
 IDIUse=3 WtCom= 9.69D-01 WtEn= 3.09D-02
 Coeff-Com: -0.758D-02 0.142D-01 0.999D-01 0.395D+00 0.498D+00
 Coeff-En:   0.000D+00 0.000D+00 0.000D+00 0.234D+00 0.766D+00
 Coeff:     -0.734D-02 0.137D-01 0.969D-01 0.390D+00 0.507D+00
[...]
 00002359,-0.00012879,0.00000685,0.00001720,0.00000239,-0.00001784,0.00
 008144,-0.00006368,0.00001684,-0.00002812,-0.00002132,-0.00000193,-0.0
 0000958,0.00003308,-0.00001486,0.00001541,-0.00001920,0.00001811,0.000
 00936,0.00001260,-0.00000288,-0.00000324,-0.00000162,0.00000467,0.0000
 0030,-0.00000351,-0.00000150,0.00000146,0.00000055,-0.00000187,0.00000
 005,-0.00000042,-0.00000024,-0.00000089,-0.00000085,0.00000091,0.00000
 105,0.00000007,-0.00000075,-0.00013295,0.00008748,-0.00021374,0.000193
 73,-0.00025225,0.00007333,0.00170193,0.00061647,0.00094927,-0.00002551
 ,0.00010840,-0.00038467,0.00000116,-0.00002654,0.00027863,-0.00083462,
 0.02689917,0.01698227,-0.00639773,0.00052252,0.00037595,-0.04572305,-0
 .00420737,-0.00259143,-0.00000116,-0.00002417,-0.00003390,0.00000059,-
 0.00000002,0.00000091,0.00000124,-0.00000023,0.,0.00000064,-0.00000085
 ,0.00000020,0.00000074,0.00000003,0.00000042,0.00000288,0.00000145,-0.
 00000597,-0.00000132,-0.00000084,-0.00000196,0.00000196,0.00000029,0.0
 0000310,0.00000041,0.00000064,0.00000297,0.00000115,-0.00000273,-0.000
 00162,0.00000003,0.00000002,-0.00000005,0.00000217,-0.00000137,0.00000
 109,0.00000095,-0.00000118,0.00000090,0.00000006,-0.00000205,0.0000009
 4,-0.00000049,-0.00000089,-0.00000005,0.00000005,0.00000017,-0.0000004
 2,-0.00000021,-0.00000145,-0.00000075,-0.00000137,-0.00000018,-0.00000
 117,0.00000092,-0.00000009,-0.00000086,0.00000044,0.00000303,-0.000003
 16,-0.00014936,0.00021600,-0.00007087,-0.00000740,0.00000394,-0.000004
 58,0.00000117,-0.00000456,0.00001148,0.00000038,0.00000043,-0.00000080
 ,-0.00000046,-0.00000104,-0.00000028,-0.00000053,-0.00000056,0.0000004
 2,-0.00000023,-0.00000040,-0.00000001,0.00000063,-0.00000020,0.0000016
 1,0.00000002,-0.00000135,-0.00000050,-0.00000226,0.00000073,0.00000172
 ,0.00000146,-0.00000085,0.00001822,-0.00005950,-0.00001686,0.00004952,
 0.00139134,-0.00031985,-0.00015270,-0.00018295,0.00158155,0.00127790,-
 0.00001101,0.00001653,-0.00010688,0.00011265,-0.00026155,0.00004015,-0
 .00033830,-0.01246625,-0.00949940,0.05074008,0.00001518,-0.00001451,-0
 .00000999,-0.00000059,0.00000420,0.00000830,0.00000239,-0.00000126,-0.
 00000014,-0.00001153,0.00001405,0.00000167,0.00001676,0.00001768,0.000
 01388,-0.00000080,-0.00000001,0.00000100,0.00000168,0.00000663,0.00000
 432,0.00000740,-0.00000079,0.00000247,-0.00000215,0.00000411,-0.000002
 39,0.00000267,0.00000051,-0.00000147,0.00000006,-0.00000362,-0.0000014
 3,0.00000131,-0.00000137,0.00000193,-0.00000013,-0.00000159,-0.0000004
 9,0.00000189,0.00000081,-0.00000054,-0.00001322,-0.00000187,-0.0000003
 1,0.00001466,0.00000077,0.00000328,0.00001045,0.00001119,-0.00000644,-
 0.00000731,-0.00000120,-0.00000029,-0.00008669,-0.00001885,-0.00002408
 ,0.00001794,-0.00000910,0.00001220,-0.00000061,-0.00000093,-0.00000023
 ,-0.00000235,0.00000114,-0.00000039,0.00002922,-0.00002590,0.00003901,
 -0.00013945,-0.00021515,0.00000956,-0.00013490,-0.00000691,-0.00006980
 ,0.00020129,-0.00000242,0.00011110,-0.00000077,-0.00007433,0.00003199,
 -0.00005853,0.00009926,-0.00007574,0.00011013,-0.00008841,0.00009173,0
 .00002457,0.00002823,-0.00000630,-0.00000255,-0.00000407,0.00000129,-0
 .00000035,-0.00000988,-0.00000587,0.00000157,0.00000075,-0.00000031,-0
 .00000161,-0.00000039,0.00000245,-0.00000201,-0.00000182,0.00000128,-0
 .00000121,0.00000121,-0.00000029,0.00011569,0.00000701,0.00009572,0.00
 012038,0.00019951,0.00025441,-0.00083491,0.00014577,-0.00054859,-0.000
 01834,0.00000634,0.00010845,0.00004543,-0.00000146,-0.00005622,-0.0009
 5749,-0.00667547,-0.00309923,0.00233011,0.00101189,0.00018953,-0.00244
 952,-0.23839093,-0.12305136,-0.00000047,0.00000314,0.00000556,0.000001
 66,-0.00000039,0.00000161,-0.00000001,-0.00000043,-0.00000011,0.000000
 55,-0.00000072,-0.00000061,0.00000086,0.00000019,0.00000083,0.00000453
 ,-0.00000715,-0.00000413,0.00000012,0.00000286,-0.00000025,-0.00000058
 ,0.00000080,0.00000274,-0.00000174,0.00000169,0.00000053,-0.00000176,0
 .00000228,0.00000105,-0.00000010,0.00000093,-0.00000071,0.00000178,-0.
 00000037,-0.00000044,0.00000186,-0.00000204,-0.00000009,-0.00000057,-0
 .00000078,-0.00000116,0.00000066,0.00000039,0.00000127,0.00000079,0.00
 000072,-0.00000072,-0.00000039,0.00000023,0.00000105,0.00000155,0.0000
 0092,0.00000046,-0.00000055,-0.00000029,0.,0.,-0.00000221,0.00000226,0
 .00007469,0.00029314,-0.00021179,-0.00001731,-0.00000122,-0.00000987,0
 .00001637,-0.00002234,0.00001240,0.00000100,0.00000132,0.00000003,-0.0
 0000071,-0.00000132,-0.00000068,-0.00000156,-0.00000207,0.00000195,-0.
 00000078,-0.00000115,0.00000039,-0.00000112,0.00000065,0.00000084,0.00
 000004,-0.00000248,0.00000006,0.00000018,0.00000110,0.00000500,0.00000
 667,-0.00000558,0.00000903,0.00002890,-0.00002469,-0.00001159,0.000117
 43,0.00090734,0.00019796,-0.00002924,-0.00043788,-0.00049828,-0.000158
 36,0.00024946,0.00017052,-0.00014937,0.00005766,-0.00004401,0.00073865
 ,-0.01713637,-0.01251105,0.00117778,0.25370786,-0.00000300,0.00000110,
 -0.00000419,0.00000274,-0.00000194,0.00000020,0.00000011,0.00000080,0.
 00000089,-0.00000128,0.00000121,-0.00000038,-0.00000188,-0.00000351,-0
 .00000232,-0.00000028,-0.00000025,-0.00000056,-0.00000186,-0.00000216,
 0.00000061,0.00000210,-0.00000014,0.00000222,-0.00000158,0.00000112,-0
 .00000122,0.00000182,0.00000107,-0.00000105,0.00000076,-0.00000146,-0.
 00000078,0.00000076,-0.00000077,0.00000059,-0.00000048,-0.00000209,0.0
 0000025,0.00000125,-0.00000001,0.00000022,-0.00000235,-0.00000409,0.00
 000011,-0.00000108,-0.00000225,-0.00000034,-0.00000952,0.00000161,0.00
 000839,0.00000538,-0.00000030,0.00000124,0.00002324,-0.00000500,0.0000
 0632,-0.00000798,0.00000247,-0.00000387,-0.00000096,-0.00000063,0.0000
 0032,-0.00000167,0.00000060,-0.00000013,-0.00004044,-0.00002019,-0.000
 01390,0.00008632,0.00019404,-0.00002398,-0.00006553,0.00013742,-0.0000
 9228,-0.00010723,0.00002568,-0.00002380,0.00000451,0.00002925,-0.00000
 630,0.00001460,-0.00001239,0.00001520,-0.00002325,0.00001471,-0.000017
 17,-0.00000193,-0.00000146,0.00000007,0.00000148,0.00000036,-0.0000022
 8,-0.00000045,0.00000088,0.00000095,-0.00000061,-0.00000030,0.00000108
 ,0.00000027,-0.00000005,-0.00000007,0.00000045,0.00000002,-0.00000022,
 -0.00000048,0.00000048,0.00000012,0.00008429,-0.00003890,0.00003713,0.
 00006530,-0.00004894,0.00015518,-0.00044425,0.00065325,0.00012462,-0.0
 0002471,-0.00000652,0.00001315,0.00012808,0.00003878,0.00012386,-0.000
 98140,-0.00358397,-0.00415721,0.00180848,-0.00000405,0.00049547,-0.001
 30390,-0.12287267,-0.12618947,-0.00000264,0.00002579,-0.00003231,-0.00
 000003,-0.00000007,0.00000061,0.00000050,-0.00000026,-0.00000012,0.000
 00041,-0.00000027,0.00000011,0.00000033,0.,0.00000047,0.00000061,0.000
 00105,-0.00000201,-0.00000030,-0.00000017,-0.00000091,0.00000074,0.000
 00004,0.00000119,-0.00000093,0.00000081,-0.00000016,-0.00000111,0.0000
 0147,0.00000053,0.00000015,0.00000081,-0.00000024,0.00000086,-0.000000
 63,0.00000015,0.00000008,-0.00000039,0.00000024,0.00000033,-0.00000110
 ,0.00000043,0.00000033,0.00000019,0.00000071,0.00000067,0.00000051,-0.
 00000065,-0.00000036,-0.00000035,0.00000038,0.00000156,0.00000058,0.00
 000033,-0.00000037,0.,-0.00000019,-0.00000056,-0.00000176,0.00000130,0
 .00010377,-0.00036269,0.00018441,0.00001108,-0.00000039,-0.00000135,-0
 .00000531,0.00000663,-0.00001298,-0.00000014,0.00000015,-0.00000018,-0
 .00000003,0.00000030,-0.00000024,-0.00000011,0.00000023,0.00000005,-0.
 00000021,-0.00000015,0.,-0.00000058,0.00000034,-0.00000007,-0.00000036
 ,0.00000017,0.00000004,0.00000087,-0.00000045,-0.00000023,0.00000733,-
 0.00001423,0.00001805,0.00000219,0.00000612,0.00000374,-0.00017123,-0.
 00011039,-0.00007014,0.00015521,-0.00062323,0.00000950,-0.00000635,-0.
 00018476,-0.00008789,-0.00002010,0.00025012,0.00040040,-0.00029835,0.0
 1497986,0.00982415,-0.00014022,0.13439302,0.13195999,0.00000740,0.0000
 0581,0.00004167,-0.00002022,0.00001284,-0.00001221,-0.00000686,-0.0000
 0801,-0.00001457,0.00001852,-0.00002961,0.00000160,0.00001053,0.000004
 10,0.00000041,0.00000273,0.00000087,0.00000218,0.00001690,0.00000276,-
 0.00001672,-0.00001066,-0.00000141,0.00001655,0.00001548,-0.00000002,-
 0.00003183,-0.00000876,0.00000084,0.00001150,-0.00000582,0.00000476,0.
 00000848,-0.00000450,-0.00000261,-0.00000773,-0.00000056,0.00000479,-0
 .00000011,-0.00000459,-0.00000161,-0.00000373,0.00002915,0.00005030,0.
 00000192,-0.00001163,0.00002390,-0.00000819,0.00002385,-0.00007589,-0.
 00002060,-0.00004683,0.00000830,-0.00001069,-0.00007465,0.00007362,-0.
 00003094,0.00004109,-0.00001419,0.00002017,0.00000477,0.00000020,-0.00
 000076,0.00000409,0.00000002,-0.00000178,0.00007314,0.00009402,-0.0000
 1289,-0.00028456,-0.00041840,0.00013923,-0.00006199,-0.00011885,-0.000
 06435,0.00010460,0.00004400,-0.00000541,0.00005734,0.00002460,0.000032
 18,-0.00000799,-0.00004869,0.00000438,0.00002899,0.00001709,-0.0000063
 8,-0.00002636,-0.00003934,0.00000895,0.00000521,0.00000418,-0.00000475
 ,0.00000090,0.00000957,0.00000444,-0.00000160,-0.00000170,0.00000208,0
 .00000111,0.00000104,-0.00000052,0.00000267,0.00000315,-0.00000222,-0.
 00000119,-0.00000110,0.00000155,0.00016227,0.00018337,-0.00031297,-0.0
 0013473,0.00019075,-0.00051935,-0.00465510,0.00223789,0.00286167,-0.00
 007547,-0.00056897,0.00074675,-0.00081110,-0.00024728,-0.00138832,-0.0
 1650897,0.00533247,-0.02606146,0.00140220,-0.00075337,-0.00107793,-0.1
 0637357,0.02177812,-0.11024159,0.00005857,-0.00006483,0.00011086,-0.00
 000252,-0.00000023,-0.00000430,-0.00000437,0.00000124,0.00000031,-0.00
 000309,0.00000341,-0.00000058,-0.00000332,-0.00000026,-0.00000271,-0.0
 0001955,-0.00000258,0.00003035,0.00000432,0.00000188,0.00000811,-0.000
 00922,-0.00000260,-0.00001499,0.00000299,-0.00000483,-0.00000737,0.000
 00187,0.00000091,0.00000230,0.00000099,-0.00000244,0.00000105,-0.00000
 898,0.00000594,-0.00000386,-0.00000332,0.00000510,-0.00000277,-0.00000
 122,0.00001014,-0.00000378,-0.00000054,0.00000176,-0.00000286,-0.00000
 149,-0.00000224,0.00000292,0.00000157,0.00000422,0.00000151,-0.0000016
 9,-0.00000173,0.00000147,-0.00000193,0.00000174,0.00000269,0.00000062,
 -0.00000153,0.00000033,-0.00003146,0.00020937,0.00008174,0.00001149,0.
 00001491,-0.00000322,0.00001082,-0.00000079,0.00001022,-0.00000162,-0.
 00000135,0.00000181,0.00000064,0.00000298,0.00000126,0.00000172,0.0000
 0176,-0.00000198,0.00000097,0.00000198,-0.00000060,0.00000174,-0.00000
 121,-0.00000336,0.00000022,0.00000520,0.00000070,0.00000163,-0.0000028
 1,-0.00000655,-0.00002545,0.00003232,-0.00008536,-0.00007051,0.0000195
 8,0.00008462,0.00124781,-0.00047088,-0.00044323,0.00018136,-0.00036057
 ,0.00013460,0.00001548,0.00010331,0.00006531,0.00009053,0.00035473,0.0
 0062915,0.00816710,-0.00202881,0.01455985,-0.00038647,-0.00015514,0.00
 115843,0.11789908,0.00000364,-0.00000695,-0.00001494,0.00000756,-0.000
 00372,0.00000643,0.00000344,0.00000289,0.00000689,-0.00000808,0.000014
 97,-0.00000003,0.00001315,0.00001383,0.00000677,-0.00000141,-0.0000005
 1,-0.00000004,-0.00000289,0.00000143,0.00000371,0.00000568,0.00000216,
 -0.00000745,-0.00000534,-0.00000045,0.00001398,0.00000296,-0.00000119,
 -0.00000457,0.00000181,-0.00000164,-0.00000296,0.00000185,0.00000133,0
 .00000344,0.00000048,-0.00000075,-0.00000015,0.00000142,0.00000075,0.0
 0000035,-0.00001310,-0.00001392,-0.00000099,0.00001391,-0.00000158,0.0
 0000240,0.00000070,0.00003006,0.00000342,0.00000125,-0.00000427,0.0000
 0138,-0.00005782,-0.00002839,-0.00001345,0.00000829,-0.00000613,0.0000
 0520,-0.00000128,0.00000018,-0.00000007,-0.00000141,0.00000008,0.00000
 064,-0.00000243,-0.00005594,0.00005244,-0.00002525,0.00002973,-0.00002
 831,-0.00016927,-0.00025456,-0.00023619,0.00020338,-0.00003715,0.00013
 453,-0.00004524,-0.00007274,0.00003801,-0.00003289,0.00010338,-0.00005
 736,0.00008357,-0.00008122,0.00006997,0.00002666,0.00003198,-0.0000070
 2,-0.00000640,-0.00000461,0.00000647,0.00000009,-0.00000839,-0.0000039
 2,0.00000224,0.00000150,-0.00000338,-0.00000122,-0.00000123,0.00000065
 ,-0.00000294,-0.00000213,0.00000219,0.00000043,-0.00000002,-0.00000056
 ,0.00004842,-0.00000372,0.00023628,0.00006951,-0.00006063,0.00018027,0
 .00134797,0.00041241,-0.00113485,-0.00021017,0.00000622,-0.00000581,0.
 00015552,0.00011784,0.00010972,0.00409691,-0.00275681,0.00784170,-0.00
 005674,0.00015584,0.00093539,0.02172123,-0.05511905,0.04007605,-0.0000
 0962,0.00000391,-0.00003045,0.00000118,-0.00000016,0.00000189,0.000001
 54,-0.00000037,-0.00000018,0.00000108,-0.00000146,0.00000013,0.0000013
 1,0.00000012,0.00000097,0.00000465,-0.00000145,-0.00000604,-0.00000135
 ,0.00000025,-0.00000194,0.00000143,0.00000058,0.00000397,-0.00000088,0
 .00000176,0.00000326,-0.00000038,-0.00000078,-0.00000118,-0.00000056,0
 .00000054,-0.00000054,0.00000312,-0.00000135,0.00000090,0.00000207,-0.
 00000254,0.00000107,-0.00000020,-0.00000271,0.00000064,-0.00000005,-0.
 00000070,0.00000103,0.00000039,0.00000070,-0.00000098,-0.00000047,-0.0
 0000154,-0.00000031,-0.00000019,0.00000047,-0.00000073,0.00000104,-0.0
 0000093,-0.00000091,0.00000022,0.00000145,-0.00000032,0.00016735,0.000
 34784,0.00008374,-0.00001939,-0.00001534,-0.00000960,0.00001654,-0.000
 02416,0.00000722,0.00000091,0.00000106,-0.00000168,-0.00000031,-0.0000
 0295,-0.00000075,-0.00000119,-0.00000152,0.00000148,-0.00000054,-0.000
 00154,0.00000056,-0.00000079,0.00000057,0.00000130,0.00000079,-0.00000
 433,-0.00000054,-0.00000118,0.00000319,0.00000562,-0.00000193,-0.00000
 685,0.00003388,0.00003372,-0.00000668,-0.00004320,-0.00039904,0.000431
 85,-0.00051144,-0.00019150,0.00012425,-0.00005271,0.00001215,-0.000053
 78,0.00003561,0.00007521,-0.00005013,-0.00036141,0.01202298,-0.0034674
 1,0.01892234,-0.01343637,0.00640801,-0.02285775,-0.02545997,0.05392323
 ,0.00000074,0.00000308,0.00001177,-0.00001002,0.00000560,-0.00000442,-
 0.00000222,-0.00000378,-0.00000667,0.00000551,-0.00001285,0.00000130,-
 0.00001058,-0.00001301,-0.00000842,0.00000147,0.00000094,0.00000061,0.
 00000187,0.00000257,0.00000213,-0.00000591,-0.00000258,0.00000701,0.00
 000623,0.00000092,-0.00001491,-0.00000388,0.00000090,0.00000547,-0.000
 00225,0.00000155,0.00000288,-0.00000204,-0.00000054,-0.00000333,-0.000
 00013,0.00000177,0.00000044,-0.00000201,-0.00000078,-0.00000099,0.0000
 1721,0.00001230,0.00000345,-0.00001334,0.00000574,-0.00000249,0.000002
 47,-0.00002791,-0.00001302,-0.00000468,0.00000258,-0.00000136,0.000049
 63,0.00002784,0.00001154,-0.00000543,0.00000475,-0.00000251,0.00000181
 ,0.00000014,-0.00000007,0.00000202,-0.00000033,-0.00000066,-0.00000804
 ,0.00001766,-0.00000711,0.00012418,0.00009204,-0.00004823,0.00018914,0
 .00002772,0.00017576,-0.00016724,0.00000433,-0.00007409,0.00000980,0.0
 0005972,-0.00003253,0.00005091,-0.00007908,0.00005800,-0.00007753,0.00
 007272,-0.00006689,-0.00002430,-0.00003148,0.00000575,0.00000534,0.000
 00438,-0.00000504,-0.00000002,0.00000697,0.00000223,-0.00000208,-0.000
 00131,0.00000269,0.00000060,0.00000159,-0.00000016,0.00000252,0.000001
 87,-0.00000211,-0.00000004,-0.00000057,0.00000045,-0.00001415,-0.00000
 085,-0.00000171,-0.00001182,0.00030967,0.00021476,0.00118419,-0.000743
 82,0.00032623,0.00010273,-0.00015321,0.00030116,0.00000261,0.00002767,
 0.00007424,0.00566845,-0.00227641,0.00605149,0.00042520,-0.00011460,0.
 00077755,-0.11174480,0.04045280,-0.24636312,-0.00001574,0.00001545,0.0
 0003822,-0.00000062,0.00000013,-0.00000203,-0.00000191,0.00000041,0.00
 000032,-0.00000116,0.00000151,-0.00000031,-0.00000135,-0.00000013,-0.0
 0000111,0.00000038,-0.00000163,0.00000249,0.00000184,0.00000008,0.0000
 0183,-0.00000014,-0.00000011,-0.00000186,0.00000147,-0.00000225,-0.000
 00306,0.00000101,0.00000006,0.00000082,0.00000032,-0.00000110,0.000000
 50,-0.00000333,0.00000134,-0.00000109,-0.00000204,0.00000264,-0.000001
 43,0.00000032,0.00000268,-0.00000073,0.00000005,0.00000066,-0.00000139
 ,-0.00000061,-0.00000104,0.00000123,0.00000048,0.00000168,0.00000005,-
 0.00000086,-0.00000085,0.00000051,-0.00000070,0.00000082,0.00000110,0.
 00000035,-0.00000032,0.00000004,-0.00014737,-0.00016523,-0.00015182,0.
 00001583,0.00000714,0.00000558,-0.00001158,0.00001709,-0.00000997,-0.0
 0000047,-0.00000128,0.00000232,0.00000033,0.00000275,0.00000109,0.0000
 0122,0.00000107,-0.00000138,0.00000079,0.00000169,-0.00000049,0.000000
 88,-0.00000072,-0.00000131,-0.00000048,0.00000412,0.00000066,0.0000006
 0,-0.00000270,-0.00000510,0.00000152,-0.00000019,-0.00001099,0.0000316
 7,-0.00001071,-0.00003133,-0.00049822,-0.00009835,0.00074855,-0.000009
 45,0.00013306,0.00024464,-0.00002998,-0.00003544,-0.00008125,-0.000214
 87,0.00029071,0.00007561,-0.00761044,0.00112621,-0.01210818,-0.0069000
 5,0.00446322,-0.01264378,0.11965025,-0.04343920,0.26255597\\-0.0000006
 4,-0.00000022,0.00000042,-0.00000055,-0.00000008,0.00000038,-0.0000003
 3,0.00000029,0.00000003,-0.00000025,0.00000032,0.00000022,-0.00000040,
 -0.00000007,0.00000013,-0.00000016,0.00000061,0.00000002,-0.00000094,-
 0.00000048,0.00000070,-0.00000017,0.00000070,-0.00000012,-0.00000053,0
 .00000103,0.00000002,0.00000270,0.00000117,-0.00000038,-0.00000054,0.0
 0000108,0.00000027,0.00000016,0.00000137,-0.00000016,-0.00000043,0.000
 00150,0.00000018,-0.00000071,0.00000137,0.00000021,0.00000022,0.000000
 28,-0.00000044,0.00000073,0.00000058,-0.00000053,-0.00000149,-0.000000
 36,0.00000022,0.00000115,0.00000017,-0.00000071,0.00000081,-0.00000003
 ,-0.00000042,0.00000101,-0.00000019,-0.00000072,-0.00000069,0.00000114
 ,0.00000039,-0.00000056,0.00000197,0.00000017,-0.00000017,-0.00000050,
 0.00000016,-0.00000022,-0.00000053,0.00000022,-0.00000018,-0.00000082,
 0.00000013,0.00000022,-0.00000101,-0.00000007,0.00000053,-0.00000096,-
 0.00000026,0.00000039,-0.00000072,-0.00000022,0.00000068,-0.00000063,-
 0.00000044,0.00000109,-0.00000083,-0.00000067,0.00000135,-0.00000069,-
 0.00000085,0.00000113,-0.00000131,-0.00000065,0.00000170,-0.00000095,-
 0.00000106,0.00000149,-0.00000155,-0.00000087,0.00000178,-0.00000138,-
 0.00000108,0.00000128,-0.00000021,-0.00000084,-0.00000102,0.00000021,0
 .00000057,-0.00000127,-0.00000002,0.00000081,-0.00000087,-0.00000021,0
 .00000071,-0.00000068,-0.00000035,0.00000024,-0.00000066,-0.00000039,0
 .00000051,-0.00000097,-0.00000024,0.00000070,-0.00000065,0.,0.00000045
 ,-0.00000108,-0.00000074,0.00000079,-0.00000014,-0.00000019,0.00000028
 ,-0.00000074,-0.00000010,0.00000053,-0.00000016,0.00000099,0.00000004,
 0.00000020,0.00000055,-0.00000018,-0.00000023,0.00000054,0.00000013,-0
 .00000090,-0.00000068,0.00000059,-0.00000123,-0.00000039,0.00000081,-0
 .00000094,-0.00000086,0.00000071,0.00000059,0.00000083,-0.00000049,0.0
 0000026,0.00000143,-0.00000028,-0.00000088,0.00000166,0.00000046,0.000
 00073,0.00000069,-0.00000054,0.00000138,0.00000015,-0.00000090,0.00000
 129,-0.00000046,-0.00000083,-0.00000063,0.00000115,0.00000031,-0.00000
 092,0.00000140,0.00000055,-0.00000071,0.00000073,0.00000046,-0.0000006
 6,0.00000219,0.00000021,-0.00000012,0.00000207,0.,-0.00000046,0.000001
 69,0.00000029,-0.00000038,-0.00000090,0.00000033,0.00000028,-0.0000012
 8,-0.00000010,0.00000078,-0.00000115,-0.00000044,0.00000092,-0.0000014
 2,-0.00000049,0.00000193,-0.00000080,-0.00000122,0.00000155,-0.0000018
 9,-0.00000088,0.00000206,-0.00000156,-0.00000124,0.00000121,0.00000006
 ,-0.00000080,0.00000153,-0.00000012,-0.00000101,0.00000103,-0.00000023
 ,-0.00000066,-0.00000112,0.00000009,0.00000084,-0.00000151,0.00000013,
 0.00000100,-0.00000125,-0.00000008,0.00000085,-0.00000057,0.00000030,0
 .00000036,-0.00000037,-0.00000027,0.00000028,-0.00000072,-0.00000004,0
 .00000047,-0.00000084,-0.00000102,0.00000063,-0.00000136,-0.00000086,0
 .00000093,-0.00000116,-0.00000070,0.00000086\\\@


 THE PROMISED LAND ALWAYS LIES ON THE OTHER SIDE OF A WILDERNESS.

                         -- HAVELOCK ELLIS
 Job cpu time:      41 days 18 hours 10 minutes  7.3 seconds.
 Elapsed time:       0 days 18 hours  3 minutes 39.7 seconds.
 File lengths (MBytes):  RWF=   6642 Int=      0 D2E=      0 Chk=     96 Scr=      1
 Normal termination of Gaussian 16 at Sun Feb  8 11:27:07 2026.
