 Entering Gaussian System, Link 0=g16
 Input=freq_15_1_t1.com
 Output=freq_15_1_t1.log
 Initial command:
 /home/software/g16-shuai/g16/l1.exe "/tmp/zgshuai_229524/g16_tmp/Gau-651164.inp" -scrdir="/tmp/zgshuai_229524/g16_tmp/"
 Entering Link 1 = /home/software/g16-shuai/g16/l1.exe PID=    651165.
  
 Copyright (c) 1988-2019, Gaussian, Inc.  All Rights Reserved.
  
 This is part of the Gaussian(R) 16 program.  It is based on
 the Gaussian(R) 09 system (copyright 2009, Gaussian, Inc.),
 the Gaussian(R) 03 system (copyright 2003, Gaussian, Inc.),
 the Gaussian(R) 98 system (copyright 1998, Gaussian, Inc.),
 the Gaussian(R) 94 system (copyright 1995, Gaussian, Inc.),
 the Gaussian 92(TM) system (copyright 1992, Gaussian, Inc.),
 the Gaussian 90(TM) system (copyright 1990, Gaussian, Inc.),
 the Gaussian 88(TM) system (copyright 1988, Gaussian, Inc.),
 the Gaussian 86(TM) system (copyright 1986, Carnegie Mellon
 University), and the Gaussian 82(TM) system (copyright 1983,
 Carnegie Mellon University). Gaussian is a federally registered
 trademark of Gaussian, Inc.
  
 This software contains proprietary and confidential information,
 including trade secrets, belonging to Gaussian, Inc.
  
 This software is provided under written license and may be
 used, copied, transmitted, or stored only in accord with that
 written license.
  
 The following legend is applicable only to US Government
 contracts under FAR:
  
                    RESTRICTED RIGHTS LEGEND
  
 Use, reproduction and disclosure by the US Government is
 subject to restrictions as set forth in subparagraphs (a)
 and (c) of the Commercial Computer Software - Restricted
 Rights clause in FAR 52.227-19.
  
 Gaussian, Inc.
 340 Quinnipiac St., Bldg. 40, Wallingford CT 06492
  
  
 ---------------------------------------------------------------
 Warning -- This program may not be used in any manner that
 competes with the business of Gaussian, Inc. or will provide
 assistance to any competitor of Gaussian, Inc.  The licensee
 of this program is prohibited from giving any competitor of
 Gaussian, Inc. access to this program.  By using this program,
 the user acknowledges that Gaussian, Inc. is engaged in the
 business of creating and licensing software in the field of
 computational chemistry and represents and warrants to the
 licensee that it is not a competitor of Gaussian, Inc. and that
 it will not use this program in any manner prohibited above.
 ---------------------------------------------------------------
  

 Cite this work as:
 Gaussian 16, Revision C.01,
 M. J. Frisch, G. W. Trucks, H. B. Schlegel, G. E. Scuseria, 
 M. A. Robb, J. R. Cheeseman, G. Scalmani, V. Barone, 
 G. A. Petersson, H. Nakatsuji, X. Li, M. Caricato, A. V. Marenich, 
 J. Bloino, B. G. Janesko, R. Gomperts, B. Mennucci, H. P. Hratchian, 
 J. V. Ortiz, A. F. Izmaylov, J. L. Sonnenberg, D. Williams-Young, 
 F. Ding, F. Lipparini, F. Egidi, J. Goings, B. Peng, A. Petrone, 
 T. Henderson, D. Ranasinghe, V. G. Zakrzewski, J. Gao, N. Rega, 
 G. Zheng, W. Liang, M. Hada, M. Ehara, K. Toyota, R. Fukuda, 
 J. Hasegawa, M. Ishida, T. Nakajima, Y. Honda, O. Kitao, H. Nakai, 
 T. Vreven, K. Throssell, J. A. Montgomery, Jr., J. E. Peralta, 
 F. Ogliaro, M. J. Bearpark, J. J. Heyd, E. N. Brothers, K. N. Kudin, 
 V. N. Staroverov, T. A. Keith, R. Kobayashi, J. Normand, 
 K. Raghavachari, A. P. Rendell, J. C. Burant, S. S. Iyengar, 
 J. Tomasi, M. Cossi, J. M. Millam, M. Klene, C. Adamo, R. Cammi, 
 J. W. Ochterski, R. L. Martin, K. Morokuma, O. Farkas, 
 J. B. Foresman, and D. J. Fox, Gaussian, Inc., Wallingford CT, 2019.
 
 ******************************************
 Gaussian 16:  ES64L-G16RevC.01  3-Jul-2019
                 8-Feb-2026 
 ******************************************
 %nprocshared=56
 Will use up to   56 processors via shared memory.
 %mem=120GB
 %chk=t1_opt.chk
 ----------------------------------------------------------------------
 #p freq TPSSh/def2svp scrf=solvent=CH2Cl2 empiricaldispersion=gd3bj IO
 p(3/174=1000000,3/175=2238200,3/177=452900,3/178=4655000) nosymm
 ----------------------------------------------------------------------
 1/10=4,30=1,38=1/1,3;
 2/12=2,15=1,17=6,18=5,40=1/2;
 3/5=43,7=101,11=2,25=1,30=1,70=2201,71=2,72=9,74=-35,124=41,140=1,174=1000000,175=2238200,177=452900,178=4655000/1,2,3;
 4//1;
 5/5=2,38=5,53=9,98=1/2;
 8/6=4,10=90,11=11/1;
 11/6=1,8=1,9=11,15=111,16=1,31=1/1,2,10;
 10/6=1,31=1/2;
 6/7=2,8=2,9=2,10=2,28=1/1;
 7/8=1,10=1,25=1,30=1/1,2,3,16;
 1/10=4,30=1/3;
 99//99;
 Leave Link    1 at Sun Feb  8 22:11:04 2026, MaxMem= 16106127360 cpu:               1.1 elap:               0.0
 (Enter /home/software/g16-shuai/g16/l101.exe)
 ------------
 test2-t1freq
 ------------
 Symbolic Z-matrix:
 Charge =  0 Multiplicity = 3
 Pt                    0.48622  -0.38578  -0.01392 
 C                     0.50165   1.51545   0.00769 
 C                    -0.74967   2.25886  -0.00716 
 C                     1.76502   2.238     0.03372 
 C                    -0.73968   3.63581   0.00486 
 C                     1.7772    3.61495   0.04578 
 C                     0.52427   4.30083   0.03175 
 H                    -1.65848   4.22382  -0.00537 
 H                     2.70533   4.18778   0.06528 
 H                     0.53319   5.39236   0.04132 
 C                     2.50253  -0.02313   0.02136 
 C                     4.75174   0.2814    0.05905 
 H                     5.79234  -0.02951   0.07132 
 C                    -1.52395   0.01022  -0.04274 
 C                    -3.76791   0.35235  -0.07133 
 H                    -4.81348   0.05891  -0.08895 
 Cl                    0.46776  -2.84823  -0.01895 
 C                     3.90385  -2.08935   0.01588 
 H                     4.45983  -2.40216   0.91149 
 H                     2.91387  -2.56293   0.00531 
 H                     4.46803  -2.38019  -0.88213 
 C                    -2.95863  -2.03241  -0.08326 
 H                    -1.97661  -2.52225  -0.06872 
 H                    -3.54052  -2.33306   0.80001 
 H                    -3.50636  -2.31693  -0.99335 
 N                     2.82779   1.34568   0.04154 
 N                     3.7127   -0.64509   0.03306 
 N                    -2.74415  -0.59142  -0.06588 
 N                    -1.82674   1.38424  -0.0333 
 C                    -3.20171   1.58923  -0.05105 
 C                     4.206     1.5276    0.06456 
 H                    -3.65059   2.57704  -0.04746 
 H                     4.67148   2.50757   0.08289 
 
 ITRead=  0  0  0  0  0  0  0  0  0  0  0  0  0  0  0  0  0  0  0  0
 ITRead=  0  0  0  0  0  0  0  0  0  0  0  0  0
 MicOpt= -1 -1 -1 -1 -1 -1 -1 -1 -1 -1 -1 -1 -1 -1 -1 -1 -1 -1 -1 -1
 MicOpt= -1 -1 -1 -1 -1 -1 -1 -1 -1 -1 -1 -1 -1
 NAtoms=     33 NQM=       33 NQMF=       0 NMMI=      0 NMMIF=      0
                NMic=       0 NMicF=      0.
                    Isotopes and Nuclear Properties:
 (Nuclear quadrupole moments (NQMom) in fm**2, nuclear magnetic moments (NMagM)
  in nuclear magnetons)

  Atom         1           2           3           4           5           6           7           8           9          10
 IAtWgt=         195          12          12          12          12          12          12           1           1           1
 AtmWgt= 194.9648000  12.0000000  12.0000000  12.0000000  12.0000000  12.0000000  12.0000000   1.0078250   1.0078250   1.0078250
 NucSpn=           1           0           0           0           0           0           0           1           1           1
 AtZEff=  -0.0000000  -0.0000000  -0.0000000  -0.0000000  -0.0000000  -0.0000000  -0.0000000  -0.0000000  -0.0000000  -0.0000000
 NQMom=    0.0000000   0.0000000   0.0000000   0.0000000   0.0000000   0.0000000   0.0000000   0.0000000   0.0000000   0.0000000
 NMagM=    0.6095000   0.0000000   0.0000000   0.0000000   0.0000000   0.0000000   0.0000000   2.7928460   2.7928460   2.7928460
 AtZNuc=  78.0000000   6.0000000   6.0000000   6.0000000   6.0000000   6.0000000   6.0000000   1.0000000   1.0000000   1.0000000

  Atom        11          12          13          14          15          16          17          18          19          20
 IAtWgt=          12          12           1          12          12           1          35          12           1           1
 AtmWgt=  12.0000000  12.0000000   1.0078250  12.0000000  12.0000000   1.0078250  34.9688527  12.0000000   1.0078250   1.0078250
 NucSpn=           0           0           1           0           0           1           3           0           1           1
 AtZEff=  -0.0000000  -0.0000000  -0.0000000  -0.0000000  -0.0000000  -0.0000000  -0.0000000  -0.0000000  -0.0000000  -0.0000000
 NQMom=    0.0000000   0.0000000   0.0000000   0.0000000   0.0000000   0.0000000  -8.1650000   0.0000000   0.0000000   0.0000000
 NMagM=    0.0000000   0.0000000   2.7928460   0.0000000   0.0000000   2.7928460   0.8218740   0.0000000   2.7928460   2.7928460
 AtZNuc=   6.0000000   6.0000000   1.0000000   6.0000000   6.0000000   1.0000000  17.0000000   6.0000000   1.0000000   1.0000000

  Atom        21          22          23          24          25          26          27          28          29          30
 IAtWgt=           1          12           1           1           1          14          14          14          14          12
 AtmWgt=   1.0078250  12.0000000   1.0078250   1.0078250   1.0078250  14.0030740  14.0030740  14.0030740  14.0030740  12.0000000
 NucSpn=           1           0           1           1           1           2           2           2           2           0
 AtZEff=  -0.0000000  -0.0000000  -0.0000000  -0.0000000  -0.0000000  -0.0000000  -0.0000000  -0.0000000  -0.0000000  -0.0000000
 NQMom=    0.0000000   0.0000000   0.0000000   0.0000000   0.0000000   2.0440000   2.0440000   2.0440000   2.0440000   0.0000000
 NMagM=    2.7928460   0.0000000   2.7928460   2.7928460   2.7928460   0.4037610   0.4037610   0.4037610   0.4037610   0.0000000
 AtZNuc=   1.0000000   6.0000000   1.0000000   1.0000000   1.0000000   7.0000000   7.0000000   7.0000000   7.0000000   6.0000000

  Atom        31          32          33
 IAtWgt=          12           1           1
 AtmWgt=  12.0000000   1.0078250   1.0078250
 NucSpn=           0           1           1
 AtZEff=  -0.0000000  -0.0000000  -0.0000000
 NQMom=    0.0000000   0.0000000   0.0000000
 NMagM=    0.0000000   2.7928460   2.7928460
 AtZNuc=   6.0000000   1.0000000   1.0000000
 Leave Link  101 at Sun Feb  8 22:11:04 2026, MaxMem= 16106127360 cpu:               3.5 elap:               0.1
 (Enter /home/software/g16-shuai/g16/l103.exe)

 GradGradGradGradGradGradGradGradGradGradGradGradGradGradGradGradGradGrad
 Berny optimization.
 Initialization pass.
 Trust Radius=3.00D-01 FncErr=1.00D-07 GrdErr=1.00D-07 EigMax=2.50D+02 EigMin=1.00D-04
 Number of steps in this run=      2 maximum allowed number of steps=      2.
 GradGradGradGradGradGradGradGradGradGradGradGradGradGradGradGradGradGrad

 Leave Link  103 at Sun Feb  8 22:11:04 2026, MaxMem= 16106127360 cpu:               0.8 elap:               0.0
 (Enter /home/software/g16-shuai/g16/l202.exe)
                          Input orientation:                          
 ---------------------------------------------------------------------
 Center     Atomic      Atomic             Coordinates (Angstroms)
 Number     Number       Type             X           Y           Z
 ---------------------------------------------------------------------
      1         78           0        0.486220   -0.385780   -0.013920
      2          6           0        0.501650    1.515450    0.007690
      3          6           0       -0.749670    2.258860   -0.007160
      4          6           0        1.765020    2.238000    0.033720
      5          6           0       -0.739680    3.635810    0.004860
      6          6           0        1.777200    3.614950    0.045780
      7          6           0        0.524270    4.300830    0.031750
      8          1           0       -1.658480    4.223820   -0.005370
      9          1           0        2.705330    4.187780    0.065280
     10          1           0        0.533190    5.392360    0.041320
     11          6           0        2.502530   -0.023130    0.021360
     12          6           0        4.751740    0.281400    0.059050
     13          1           0        5.792340   -0.029510    0.071320
     14          6           0       -1.523950    0.010220   -0.042740
     15          6           0       -3.767910    0.352350   -0.071330
     16          1           0       -4.813480    0.058910   -0.088950
     17         17           0        0.467760   -2.848230   -0.018950
     18          6           0        3.903850   -2.089350    0.015880
     19          1           0        4.459830   -2.402160    0.911490
     20          1           0        2.913870   -2.562930    0.005310
     21          1           0        4.468030   -2.380190   -0.882130
     22          6           0       -2.958630   -2.032410   -0.083260
     23          1           0       -1.976610   -2.522250   -0.068720
     24          1           0       -3.540520   -2.333060    0.800010
     25          1           0       -3.506360   -2.316930   -0.993350
     26          7           0        2.827790    1.345680    0.041540
     27          7           0        3.712700   -0.645090    0.033060
     28          7           0       -2.744150   -0.591420   -0.065880
     29          7           0       -1.826740    1.384240   -0.033300
     30          6           0       -3.201710    1.589230   -0.051050
     31          6           0        4.206000    1.527600    0.064560
     32          1           0       -3.650590    2.577040   -0.047460
     33          1           0        4.671480    2.507570    0.082890
 ---------------------------------------------------------------------
                    Distance matrix (angstroms):
                    1          2          3          4          5
     1  Pt   0.000000
     2  C    1.901415   0.000000
     3  C    2.919176   1.455569   0.000000
     4  C    2.919216   1.455630   2.515109   0.000000
     5  C    4.204327   2.456997   1.377039   2.868489   0.000000
     6  C    4.204288   2.456904   2.868249   1.377057   2.517299
     7  C    4.686987   2.785576   2.407089   2.407225   1.428476
     8  H    5.084115   3.464333   2.164950   3.957949   1.090896
     9  H    5.084110   3.464227   3.957651   2.164907   3.489472
    10  H    5.778595   3.877184   3.386281   3.386362   2.169561
    11  C    2.048967   2.524071   3.973046   2.378399   4.888767
    12  C    4.317999   4.425922   5.846387   3.570633   6.435114
    13  H    5.318750   5.512019   6.931139   4.621939   7.490412
    14  C    2.049007   2.524147   2.378478   3.973182   3.709750
    15  C    4.318073   4.425855   3.570528   5.846369   4.467336
    16  H    5.318853   5.511937   4.621798   6.931100   5.422072
    17  Cl   2.462524   4.363893   5.250204   5.249323   6.595548
    18  C    3.818800   4.956775   6.368886   4.827097   7.371564
    19  H    4.551016   5.641960   7.050384   5.437239   8.019599
    20  H    3.260956   4.738354   6.055687   4.936557   7.195332
    21  H    4.537210   5.630272   7.036388   5.428879   8.006201
    22  C    3.818794   4.956725   4.827038   6.368905   6.087711
    23  H    3.260834   4.738210   4.936414   6.055598   6.281490
    24  H    4.546319   5.637192   5.433792   7.044895   6.641113
    25  H    4.541951   5.635012   5.432289   7.041996   6.639733
    26  N    2.912727   2.332573   3.692491   1.387723   4.239444
    27  N    3.237224   3.870325   5.324217   3.479320   6.176616
    28  N    3.237326   3.870340   3.479295   5.324298   4.678929
    29  N    2.912581   2.332444   1.387704   3.692443   2.500545
    30  C    4.183643   3.704561   2.542210   5.009640   3.202063
    31  C    4.183772   3.704806   5.009845   2.542440   5.376603
    32  H    5.088480   4.286154   2.918595   5.426820   3.097923
    33  H    5.088934   4.286892   5.427599   2.919348   5.528080
                    6          7          8          9         10
     6  C    0.000000
     7  C    1.428447   0.000000
     8  H    3.489590   2.184423   0.000000
     9  H    1.090844   2.184245   4.364531   0.000000
    10  H    2.169508   1.091608   2.484166   2.483904   0.000000
    11  C    3.709761   4.755024   5.945696   4.216019   5.762485
    12  C    4.467731   5.833358   7.525805   4.409948   6.627095
    13  H    5.422554   6.819529   8.579710   5.226395   7.553558
    14  C    4.888712   4.755007   4.215913   5.945627   5.762493
    15  C    6.434790   5.833003   4.409345   7.525425   6.626753
    16  H    7.490036   6.819093   5.225657   8.579269   7.553115
    17  Cl   6.594810   7.149463   7.384780   7.383715   8.241070
    18  C    6.087904   7.228846   8.414041   6.390716   8.205972
    19  H    6.644665   7.822573   9.065206   6.871801   8.770989
    20  H    6.281708   7.267881   8.183305   6.754197   8.303949
    21  H    6.636512   7.811815   9.050734   6.866071   8.760608
    22  C    7.371391   7.228675   6.390373   8.413874   8.205823
    23  H    7.195097   7.267662   6.753864   8.183094   8.303750
    24  H    8.014102   7.818007   6.869016   9.059350   8.766575
    25  H    8.011429   7.816109   6.868200   9.056326   8.764797
    26  N    2.500669   3.746894   5.330339   2.844836   4.651968
    27  N    4.679131   5.884574   7.249644   4.936848   6.823500
    28  N    6.176457   5.884404   4.936484   7.249468   6.823348
    29  N    4.239187   3.746729   2.844698   5.330029   4.651867
    30  C    5.376101   4.608965   3.053639   6.454387   5.331211
    31  C    3.202570   4.609449   6.454968   3.054271   5.331645
    32  H    5.526921   4.517431   2.584987   6.557813   5.043602
    33  H    3.099117   4.518600   6.559093   2.586341   5.044719
                   11         12         13         14         15
    11  C    0.000000
    12  C    2.270045   0.000000
    13  H    3.290196   1.086123   0.000000
    14  C    4.027128   6.282371   7.317287   0.000000
    15  C    6.282356   8.520943   9.568937   2.270072   0.000000
    16  H    7.317301   9.568952  10.607399   3.290215   1.086110
    17  Cl   3.481825   5.305954   6.025320   3.483994   5.309177
    18  C    2.496596   2.518181   2.795069   5.820021   8.051423
    19  H    3.206733   2.830788   2.847971   6.521944   8.732065
    20  H    2.572944   3.386867   3.835122   5.130074   7.290467
    21  H    3.199252   2.837318   2.861566   6.505571   8.715210
    22  C    5.820002   8.051321   8.978584   2.496455   2.518364
    23  H    5.129952   7.290231   8.160266   2.572738   3.387047
    24  H    6.516174   8.726167   9.640519   3.204332   2.832378
    25  H    6.511368   8.720956   9.634917   3.201443   2.836121
    26  N    1.407069   2.198768   3.268117   4.552823   6.671035
    27  N    1.360692   1.392359   2.169172   5.278038   7.547537
    28  N    5.278088   7.547568   8.556064   1.360659   1.392414
    29  N    4.552610   6.670921   7.749840   1.407019   2.198723
    30  C    5.928179   8.061012   9.139378   2.303958   1.360465
    31  C    2.304005   1.360469   2.222861   5.928430   8.061198
    32  H    6.680307   8.710939   9.796792   3.333344   2.227909
    33  H    3.333553   2.227744   2.773668   6.681010   8.711605
                   16         17         18         19         20
    16  H    0.000000
    17  Cl   6.028919   0.000000
    18  C    8.978744   3.519066   0.000000
    19  H    9.646348   4.123266   1.099582   0.000000
    20  H    8.160568   2.462811   1.097474   1.799167   0.000000
    21  H    9.629370   4.119017   1.099686   1.793773   1.798988
    22  C    2.795375   3.522761   6.863432   7.493984   5.897080
    23  H    3.835444   2.466513   5.896980   6.511758   4.891209
    24  H    2.851701   4.123397   7.489519   8.001425   6.507191
    25  H    2.858517   4.126180   7.482082   8.191206   6.502091
    26  N    7.749956   4.812721   3.599721   4.179315   3.909726
    27  N    8.556065   3.922520   1.456956   2.101699   2.077741
    28  N    2.169237   3.925781   6.815158   7.492086   5.992087
    29  N    3.268059   4.814430   6.701336   7.399352   6.168875
    30  C    2.222863   5.758219   8.001588   8.692346   7.392153
    31  C    9.139564   5.755806   3.629875   4.027994   4.290169
    32  H    2.773989   6.811400   8.879683   9.565089   8.337518
    33  H    9.797445   6.809275   4.661053   4.983656   5.367046
                   21         22         23         24         25
    21  H    0.000000
    22  C    7.477595   0.000000
    23  H    6.497323   1.097505   0.000000
    24  H    8.183440   1.099615   1.798972   0.000000
    25  H    7.975416   1.099647   1.799231   1.793758   0.000000
    26  N    4.174405   6.701472   6.168898   7.393496   7.389666
    27  N    2.102063   6.815044   5.991856   7.486431   7.480869
    28  N    7.475393   1.456968   2.077795   2.101733   2.102035
    29  N    7.383466   3.599607   3.909524   4.177292   4.176300
    30  C    8.675938   3.629931   4.290157   4.027835   4.029743
    31  C    4.029355   8.001715   7.392139   8.686435   8.682170
    32  H    9.548968   4.661236   5.367068   4.983914   4.986627
    33  H    4.986266   8.880180   8.337816   9.559441   9.555687
                   26         27         28         29         30
    26  N    0.000000
    27  N    2.178601   0.000000
    28  N    5.900035   6.457831   0.000000
    29  N    4.655291   5.899829   2.178517   0.000000
    30  C    6.035127   7.266934   2.228187   1.390280   0.000000
    31  C    1.390355   2.228210   7.267176   6.035237   7.408868
    32  H    6.594966   8.037826   3.295620   2.179312   1.085023
    33  H    2.179654   3.295604   8.038497   6.595622   7.927699
                   31         32         33
    31  C    0.000000
    32  H    7.927161   0.000000
    33  H    1.085057   8.323381   0.000000
 Symmetry turned off by external request.
 Stoichiometry    C14H13ClN4Pt(3)
 Framework group  C1[X(C14H13ClN4Pt)]
 Deg. of freedom    93
 Full point group                 C1      NOp   1
 Rotational constants (GHZ):           0.3787025           0.2738491           0.1592518
 Leave Link  202 at Sun Feb  8 22:11:04 2026, MaxMem= 16106127360 cpu:               0.2 elap:               0.0
 (Enter /home/software/g16-shuai/g16/l301.exe)
 Standard basis: def2SVP (5D, 7F)
 Ernie: Thresh=  0.10000D-02 Tol=  0.10000D-05 Strict=F.
   367 basis functions,   643 primitive gaussians,   391 cartesian basis functions
    81 alpha electrons       79 beta electrons
       nuclear repulsion energy      1851.0729524675 Hartrees.
 IExCor= 2523 DFT=T Ex+Corr=TPSSh ExCW=0 ScaHFX=  0.100000
 ScaDFX=  0.900000  0.900000  1.000000  1.000000 ScalE2=  1.000000  1.000000
 IRadAn=      5 IRanWt=     -1 IRanGd=            0 ICorTp=0 IEmpDi=141
 NAtoms=   33 NActive=   33 NUniq=   33 SFac= 1.00D+00 NAtFMM=   60 NAOKFM=F Big=F
 Integral buffers will be    131072 words long.
 Raffenetti 2 integral format.
 Two-electron integral symmetry is turned off.
 R6DIni: Non-standard D2/D3 S6 parameter, value=     1.000000
 R6DIni: Non-standard D2/D3 S8 parameter, value=     2.238200
 R6DIni: Non-standard D3BJ A1 parameter, value=     0.452900
 R6DIni: Non-standard D3BJ A2 parameter, value=     4.655000
 R6Disp:  Grimme-D3(BJ) Dispersion energy=       -0.0620314027 Hartrees.
 Nuclear repulsion after empirical dispersion term =     1851.0109210648 Hartrees.
 Force inversion solution in PCM.
 ------------------------------------------------------------------------------
 Polarizable Continuum Model (PCM)
 =================================
 Model                : PCM.
 Atomic radii         : UFF (Universal Force Field).
 Polarization charges : Total charges.
 Charge compensation  : None.
 Solution method      : Matrix inversion.
 Cavity type          : Scaled VdW (van der Waals Surface) (Alpha=1.100).
 Cavity algorithm     : GePol (No added spheres)
                        Default sphere list used, NSphG=   33.
                        Lebedev-Laikov grids with approx.  5.0 points / Ang**2.
                        Smoothing algorithm: York/Karplus (Gamma=1.0000).
                        Polarization charges: spherical gaussians, with
                                              point-specific exponents (IZeta= 3).
                        Self-potential: point-specific (ISelfS= 7).
                        Self-field    : sphere-specific E.n sum rule (ISelfD= 2).
 1st derivatives      : Analytical E(r).r(x)/FMM algorithm (CHGder, D1EAlg=3).
                        Cavity 1st derivative terms included.
 2nd derivatives      : Analytical E(r).r(xy)/FMM algorithm (CHGder, D2EAlg=3).
                        Cavity 2nd derivative terms included.
 Solvent              : Dichloromethane, Eps=   8.930000 Eps(inf)=   2.028346
 ------------------------------------------------------------------------------
 GePol: Number of generator spheres                  =      33
 GePol: Total number of spheres                      =      33
 GePol: Number of exposed spheres                    =      33 (100.00%)
 GePol: Number of points                             =    2565
 GePol: Average weight of points                     =       0.13
 GePol: Minimum weight of points                     =   0.27D-11
 GePol: Maximum weight of points                     =    0.21838
 GePol: Number of points with low weight             =     146
 GePol: Fraction of low-weight points (<1% of avg)   =       5.69%
 GePol: Cavity surface area                          =    343.132 Ang**2
 GePol: Cavity volume                                =    377.284 Ang**3
 Leave Link  301 at Sun Feb  8 22:11:04 2026, MaxMem= 16106127360 cpu:               2.4 elap:               0.1
 (Enter /home/software/g16-shuai/g16/l302.exe)
 NPDir=0 NMtPBC=     1 NCelOv=     1 NCel=       1 NClECP=     1 NCelD=      1
         NCelK=      1 NCelE2=     1 NClLst=     1 CellRange=     0.0.
 One-electron integrals computed using PRISM.
   1 Symmetry operations used in ECPInt.
 ECPInt:  NShTT=   14028 NPrTT=   51030 LenC2=   12712 LenP2D=   32462.
 LDataN:  DoStor=T MaxTD1= 8 Len=  415
 NBasis=   367 RedAO= T EigKep=  2.44D-04  NBF=   367
 NBsUse=   367 1.00D-06 EigRej= -1.00D+00 NBFU=   367
 Precomputing XC quadrature grid using
 IXCGrd= 4 IRadAn=           5 IRanWt=          -1 IRanGd=           0 AccXCQ= 0.00D+00.
 Defaulting to unpruned grid for atomic number  78.
 Generated NRdTot=       0 NPtTot=           0 NUsed=           0 NTot=          32
 NSgBfM=   389   389   389   389   389 MxSgAt=    33 MxSgA2=    33.
 Leave Link  302 at Sun Feb  8 22:11:04 2026, MaxMem= 16106127360 cpu:              18.9 elap:               0.4
 (Enter /home/software/g16-shuai/g16/l303.exe)
 DipDrv:  MaxL=1.
 Leave Link  303 at Sun Feb  8 22:11:04 2026, MaxMem= 16106127360 cpu:               1.8 elap:               0.1
 (Enter /home/software/g16-shuai/g16/l401.exe)
 ExpMin= 4.90D-02 ExpMax= 1.04D+04 ExpMxC= 1.57D+03 IAcc=3 IRadAn=         5 AccDes= 0.00D+00
 Harris functional with IExCor= 1009 and IRadAn=       5 diagonalized for initial guess.
 HarFok:  IExCor= 1009 AccDes= 0.00D+00 IRadAn=         5 IDoV= 1 UseB2=F ITyADJ=14
 ICtDFT=  3500011 ScaDFX=  1.000000  1.000000  1.000000  1.000000
 Defaulting to unpruned grid for atomic number  78.
 FoFCou: FMM=F IPFlag=           0 FMFlag=      100000 FMFlg1=           0
         NFxFlg=           0 DoJE=T BraDBF=F KetDBF=T FulRan=T
         wScrn=  0.000000 ICntrl=       500 IOpCl=  0 I1Cent=   200000004 NGrid=           0
         NMat0=    1 NMatS0=      1 NMatT0=    0 NMatD0=    1 NMtDS0=    0 NMtDT0=    0
 Symmetry not used in FoFCou.
 Harris En= -1338.18915018927    
 JPrj=0 DoOrth=F DoCkMO=F.
 Initial guess <Sx>= 0.0000 <Sy>= 0.0000 <Sz>= 1.0000 <S**2>= 2.0000 S= 1.0000
 Leave Link  401 at Sun Feb  8 22:11:05 2026, MaxMem= 16106127360 cpu:              36.9 elap:               0.7
 (Enter /home/software/g16-shuai/g16/l502.exe)
 Two-electron integral symmetry not used.
 UHF open shell SCF:
 Using DIIS extrapolation, IDIIS=  1040.
 NGot= 16106127360 LenX= 16105795799 LenY= 16105642477
 Requested convergence on RMS density matrix=1.00D-08 within 128 cycles.
 Requested convergence on MAX density matrix=1.00D-06.
 Requested convergence on             energy=1.00D-06.
 No special actions if energy rises.
 Fock matrices will be formed incrementally for  20 cycles.

 Cycle   1  Pass 1  IDiag  1:
 FoFJK:  IHMeth= 1 ICntrl=       0 DoSepK=F KAlg= 0 I1Cent=           0 FoldK=F
 IRaf= 850000000 NMat=       1 IRICut=       1 DoRegI=T DoRafI=F ISym2E= 0 IDoP0=0 IntGTp=1.
 FoFCou: FMM=F IPFlag=           0 FMFlag=      100000 FMFlg1=           0
         NFxFlg=           0 DoJE=F BraDBF=F KetDBF=F FulRan=T
         wScrn=  0.000000 ICntrl=         0 IOpCl=  1 I1Cent=           0 NGrid=           0
         NMat0=    1 NMatS0=      1 NMatT0=    0 NMatD0=    1 NMtDS0=    0 NMtDT0=    0
 Symmetry not used in FoFCou.
 Defaulting to unpruned grid for atomic number  78.
 Defaulting to unpruned grid for atomic number  78.
 Defaulting to unpruned grid for atomic number  78.
 Defaulting to unpruned grid for atomic number  78.
 Defaulting to unpruned grid for atomic number  78.
 Defaulting to unpruned grid for atomic number  78.
 Defaulting to unpruned grid for atomic number  78.
 Defaulting to unpruned grid for atomic number  78.
 Defaulting to unpruned grid for atomic number  78.
 Defaulting to unpruned grid for atomic number  78.
 Defaulting to unpruned grid for atomic number  78.
 Defaulting to unpruned grid for atomic number  78.
 Defaulting to unpruned grid for atomic number  78.
 Defaulting to unpruned grid for atomic number  78.
 Defaulting to unpruned grid for atomic number  78.
 Defaulting to unpruned grid for atomic number  78.
 Defaulting to unpruned grid for atomic number  78.
 Defaulting to unpruned grid for atomic number  78.
 Defaulting to unpruned grid for atomic number  78.
 Defaulting to unpruned grid for atomic number  78.
 Defaulting to unpruned grid for atomic number  78.
 Defaulting to unpruned grid for atomic number  78.
 Defaulting to unpruned grid for atomic number  78.
 Defaulting to unpruned grid for atomic number  78.
 Defaulting to unpruned grid for atomic number  78.
 Defaulting to unpruned grid for atomic number  78.
 Defaulting to unpruned grid for atomic number  78.
 Defaulting to unpruned grid for atomic number  78.
 Defaulting to unpruned grid for atomic number  78.
 Defaulting to unpruned grid for atomic number  78.
 Defaulting to unpruned grid for atomic number  78.
 Defaulting to unpruned grid for atomic number  78.
 Defaulting to unpruned grid for atomic number  78.
 Defaulting to unpruned grid for atomic number  78.
 Defaulting to unpruned grid for atomic number  78.
 Defaulting to unpruned grid for atomic number  78.
 Defaulting to unpruned grid for atomic number  78.
 Defaulting to unpruned grid for atomic number  78.
 Defaulting to unpruned grid for atomic number  78.
 Defaulting to unpruned grid for atomic number  78.
 Defaulting to unpruned grid for atomic number  78.
 Defaulting to unpruned grid for atomic number  78.
 Defaulting to unpruned grid for atomic number  78.
 Defaulting to unpruned grid for atomic number  78.
 Defaulting to unpruned grid for atomic number  78.
 Defaulting to unpruned grid for atomic number  78.
 Defaulting to unpruned grid for atomic number  78.
 Defaulting to unpruned grid for atomic number  78.
 Defaulting to unpruned grid for atomic number  78.
 Defaulting to unpruned grid for atomic number  78.
 Defaulting to unpruned grid for atomic number  78.
 Defaulting to unpruned grid for atomic number  78.
 Defaulting to unpruned grid for atomic number  78.
 Defaulting to unpruned grid for atomic number  78.
 Defaulting to unpruned grid for atomic number  78.
 Defaulting to unpruned grid for atomic number  78.
 Inv3:  Mode=1 IEnd=    19737675.
 Iteration    1 A*A^-1 deviation from unit magnitude is 6.44D-15 for   2564.
 Iteration    1 A*A^-1 deviation from orthogonality  is 4.19D-15 for   2565   2480.
 Iteration    1 A^-1*A deviation from unit magnitude is 6.00D-15 for   2564.
 Iteration    1 A^-1*A deviation from orthogonality  is 4.22D-15 for   2565   2480.
 E= -1337.60903516613    
 DIIS: error= 8.05D-02 at cycle   1 NSaved=   1.
 NSaved= 1 IEnMin= 1 EnMin= -1337.60903516613     IErMin= 1 ErrMin= 8.05D-02
 ErrMax= 8.05D-02  0.00D+00 EMaxC= 1.00D-01 BMatC= 6.86D+00 BMatP= 6.86D+00
 IDIUse=3 WtCom= 1.95D-01 WtEn= 8.05D-01
 Coeff-Com:  0.100D+01
 Coeff-En:   0.100D+01
 Coeff:      0.100D+01
 Gap=    -0.341 Goal=   None    Shift=    0.000
 Gap=     0.016 Goal=   None    Shift=    0.000
 GapD=   -0.341 DampG=0.250 DampE=0.250 DampFc=0.1250 IDamp=-1.
 Damping current iteration by 1.25D-01
 RMSDP=2.37D-02 MaxDP=3.34D+00              OVMax= 7.28D-01

 Cycle   2  Pass 1  IDiag  1:
 RMSU=  2.96D-03    CP:  1.01D+00
 E= -1338.11566068886     Delta-E=       -0.506625522731 Rises=F Damp=T
 DIIS: error= 4.80D-02 at cycle   2 NSaved=   2.
 NSaved= 2 IEnMin= 2 EnMin= -1338.11566068886     IErMin= 2 ErrMin= 4.80D-02
 ErrMax= 4.80D-02  0.00D+00 EMaxC= 1.00D-01 BMatC= 2.57D+00 BMatP= 6.86D+00
 IDIUse=3 WtCom= 5.20D-01 WtEn= 4.80D-01
 Coeff-Com: -0.136D+01 0.236D+01
 Coeff-En:   0.000D+00 0.100D+01
 Coeff:     -0.706D+00 0.171D+01
 Gap=     0.244 Goal=   None    Shift=    0.000
 Gap=     0.034 Goal=   None    Shift=    0.000
 RMSDP=6.23D-03 MaxDP=7.69D-01 DE=-5.07D-01 OVMax= 8.36D-01

 Cycle   3  Pass 1  IDiag  1:
 RMSU=  6.16D-03    CP:  9.69D-01  1.18D+00
 E= -1338.20953989765     Delta-E=       -0.093879208796 Rises=F Damp=F
 DIIS: error= 6.15D-02 at cycle   3 NSaved=   3.
 NSaved= 3 IEnMin= 3 EnMin= -1338.20953989765     IErMin= 2 ErrMin= 4.80D-02
 ErrMax= 6.15D-02  0.00D+00 EMaxC= 1.00D-01 BMatC= 4.00D+00 BMatP= 2.57D+00
 IDIUse=2 WtCom= 0.00D+00 WtEn= 1.00D+00
 EnCoef did   100 forward-backward iterations
 Coeff-En:   0.409D+00 0.171D-01 0.574D+00
 Coeff:      0.409D+00 0.171D-01 0.574D+00
 Gap=     0.031 Goal=   None    Shift=    0.000
 Gap=     0.012 Goal=   None    Shift=    0.000
 RMSDP=5.11D-03 MaxDP=4.40D-01 DE=-9.39D-02 OVMax= 7.01D-01

 Cycle   4  Pass 1  IDiag  1:
 RMSU=  3.66D-03    CP:  9.64D-01  4.36D-01  5.44D-01
 E= -1338.77060676500     Delta-E=       -0.561066867348 Rises=F Damp=F
 DIIS: error= 3.63D-02 at cycle   4 NSaved=   4.
 NSaved= 4 IEnMin= 4 EnMin= -1338.77060676500     IErMin= 4 ErrMin= 3.63D-02
 ErrMax= 3.63D-02  0.00D+00 EMaxC= 1.00D-01 BMatC= 1.74D+00 BMatP= 2.57D+00
 IDIUse=3 WtCom= 6.37D-01 WtEn= 3.63D-01
 EnCoef did   100 forward-backward iterations
 Coeff-Com: -0.288D+00 0.812D+00 0.298D+00 0.178D+00
 Coeff-En:   0.241D+00 0.456D-02 0.330D+00 0.424D+00
 Coeff:     -0.957D-01 0.518D+00 0.310D+00 0.267D+00
 Gap=     0.051 Goal=   None    Shift=    0.000
 Gap=     0.008 Goal=   None    Shift=    0.000
 RMSDP=3.23D-03 MaxDP=1.77D-01 DE=-5.61D-01 OVMax= 5.03D-01

 Cycle   5  Pass 1  IDiag  1:
 RMSU=  2.05D-03    CP:  9.64D-01  3.54D-01  6.52D-01  3.47D-01
 E= -1339.24528586848     Delta-E=       -0.474679103480 Rises=F Damp=F
 DIIS: error= 1.18D-02 at cycle   5 NSaved=   5.
 NSaved= 5 IEnMin= 5 EnMin= -1339.24528586848     IErMin= 5 ErrMin= 1.18D-02
 ErrMax= 1.18D-02  0.00D+00 EMaxC= 1.00D-01 BMatC= 2.25D-01 BMatP= 1.74D+00
 IDIUse=3 WtCom= 8.82D-01 WtEn= 1.18D-01
 Coeff-Com: -0.162D+00 0.285D+00 0.255D-01 0.198D+00 0.654D+00
 Coeff-En:   0.000D+00 0.000D+00 0.000D+00 0.156D+00 0.844D+00
 Coeff:     -0.143D+00 0.251D+00 0.225D-01 0.193D+00 0.676D+00
 Gap=     0.035 Goal=   None    Shift=    0.000
 Gap=     0.054 Goal=   None    Shift=    0.000
 RMSDP=1.09D-03 MaxDP=6.39D-02 DE=-4.75D-01 OVMax= 2.21D-01

 Cycle   6  Pass 1  IDiag  1:
 RMSU=  6.07D-04    CP:  9.63D-01  3.81D-01  6.51D-01  5.31D-01  7.09D-01
 E= -1339.31134037279     Delta-E=       -0.066054504308 Rises=F Damp=F
 DIIS: error= 4.02D-03 at cycle   6 NSaved=   6.
 NSaved= 6 IEnMin= 6 EnMin= -1339.31134037279     IErMin= 6 ErrMin= 4.02D-03
 ErrMax= 4.02D-03  0.00D+00 EMaxC= 1.00D-01 BMatC= 2.11D-02 BMatP= 2.25D-01
 IDIUse=3 WtCom= 9.60D-01 WtEn= 4.02D-02
 Coeff-Com: -0.918D-01 0.147D+00-0.146D-01 0.737D-01 0.337D+00 0.549D+00
 Coeff-En:   0.000D+00 0.000D+00 0.000D+00 0.000D+00 0.000D+00 0.100D+01
 Coeff:     -0.882D-01 0.141D+00-0.140D-01 0.708D-01 0.323D+00 0.567D+00
 Gap=     0.045 Goal=   None    Shift=    0.000
 Gap=     0.040 Goal=   None    Shift=    0.000
 RMSDP=3.74D-04 MaxDP=3.00D-02 DE=-6.61D-02 OVMax= 8.15D-02

 Cycle   7  Pass 1  IDiag  1:
 RMSU=  2.83D-04    CP:  9.63D-01  3.72D-01  6.46D-01  5.06D-01  7.85D-01
                    CP:  7.38D-01
 E= -1339.31550580186     Delta-E=       -0.004165429074 Rises=F Damp=F
 DIIS: error= 2.10D-03 at cycle   7 NSaved=   7.
 NSaved= 7 IEnMin= 7 EnMin= -1339.31550580186     IErMin= 7 ErrMin= 2.10D-03
 ErrMax= 2.10D-03  0.00D+00 EMaxC= 1.00D-01 BMatC= 6.61D-03 BMatP= 2.11D-02
 IDIUse=3 WtCom= 9.79D-01 WtEn= 2.10D-02
 Coeff-Com: -0.123D-01 0.206D-01-0.139D-01 0.485D-02 0.175D-01 0.350D+00
 Coeff-Com:  0.633D+00
 Coeff-En:   0.000D+00 0.000D+00 0.000D+00 0.000D+00 0.000D+00 0.238D+00
 Coeff-En:   0.762D+00
 Coeff:     -0.120D-01 0.201D-01-0.136D-01 0.475D-02 0.171D-01 0.348D+00
 Coeff:      0.636D+00
 Gap=     0.048 Goal=   None    Shift=    0.000
 Gap=     0.047 Goal=   None    Shift=    0.000
 RMSDP=1.95D-04 MaxDP=8.93D-03 DE=-4.17D-03 OVMax= 4.11D-02

 Cycle   8  Pass 1  IDiag  1:
 RMSU=  1.31D-04    CP:  9.63D-01  3.68D-01  6.43D-01  5.26D-01  7.55D-01
                    CP:  8.81D-01  7.78D-01
 E= -1339.31722068918     Delta-E=       -0.001714887316 Rises=F Damp=F
 DIIS: error= 1.14D-03 at cycle   8 NSaved=   8.
 NSaved= 8 IEnMin= 8 EnMin= -1339.31722068918     IErMin= 8 ErrMin= 1.14D-03
 ErrMax= 1.14D-03  0.00D+00 EMaxC= 1.00D-01 BMatC= 1.35D-03 BMatP= 6.61D-03
 IDIUse=3 WtCom= 9.89D-01 WtEn= 1.14D-02
 Coeff-Com:  0.579D-02-0.675D-02-0.662D-02-0.555D-02-0.340D-01 0.152D+00
 Coeff-Com:  0.421D+00 0.474D+00
 Coeff-En:   0.000D+00 0.000D+00 0.000D+00 0.000D+00 0.000D+00 0.000D+00
 Coeff-En:   0.484D-01 0.952D+00
 Coeff:      0.572D-02-0.668D-02-0.655D-02-0.548D-02-0.336D-01 0.151D+00
 Coeff:      0.416D+00 0.480D+00
 Gap=     0.049 Goal=   None    Shift=    0.000
 Gap=     0.047 Goal=   None    Shift=    0.000
 RMSDP=9.15D-05 MaxDP=6.16D-03 DE=-1.71D-03 OVMax= 1.57D-02

 Cycle   9  Pass 1  IDiag  1:
 RMSU=  6.32D-05    CP:  9.63D-01  3.70D-01  6.41D-01  5.26D-01  7.57D-01
                    CP:  8.94D-01  9.12D-01  6.14D-01
 E= -1339.31761391004     Delta-E=       -0.000393220863 Rises=F Damp=F
 DIIS: error= 3.55D-04 at cycle   9 NSaved=   9.
 NSaved= 9 IEnMin= 9 EnMin= -1339.31761391004     IErMin= 9 ErrMin= 3.55D-04
 ErrMax= 3.55D-04  0.00D+00 EMaxC= 1.00D-01 BMatC= 1.32D-04 BMatP= 1.35D-03
 IDIUse=3 WtCom= 9.96D-01 WtEn= 3.55D-03
 Coeff-Com: -0.700D-03 0.185D-02-0.806D-03-0.449D-02-0.907D-02 0.284D-02
 Coeff-Com:  0.456D-01 0.198D+00 0.767D+00
 Coeff-En:   0.000D+00 0.000D+00 0.000D+00 0.000D+00 0.000D+00 0.000D+00
 Coeff-En:   0.000D+00 0.000D+00 0.100D+01
 Coeff:     -0.698D-03 0.184D-02-0.803D-03-0.448D-02-0.904D-02 0.283D-02
 Coeff:      0.454D-01 0.198D+00 0.767D+00
 Gap=     0.049 Goal=   None    Shift=    0.000
 Gap=     0.049 Goal=   None    Shift=    0.000
 RMSDP=3.49D-05 MaxDP=2.44D-03 DE=-3.93D-04 OVMax= 4.92D-03

 Cycle  10  Pass 1  IDiag  1:
 RMSU=  2.72D-05    CP:  9.63D-01  3.70D-01  6.42D-01  5.24D-01  7.58D-01
                    CP:  9.02D-01  9.28D-01  7.61D-01  1.04D+00
 E= -1339.31766938188     Delta-E=       -0.000055471837 Rises=F Damp=F
 DIIS: error= 2.43D-04 at cycle  10 NSaved=  10.
 NSaved=10 IEnMin=10 EnMin= -1339.31766938188     IErMin=10 ErrMin= 2.43D-04
 ErrMax= 2.43D-04  0.00D+00 EMaxC= 1.00D-01 BMatC= 7.87D-05 BMatP= 1.32D-04
 IDIUse=3 WtCom= 9.98D-01 WtEn= 2.43D-03
 Coeff-Com:  0.570D-03-0.960D-03 0.123D-02-0.779D-03 0.417D-02-0.505D-01
 Coeff-Com: -0.109D+00-0.997D-02 0.541D+00 0.624D+00
 Coeff-En:   0.000D+00 0.000D+00 0.000D+00 0.000D+00 0.000D+00 0.000D+00
 Coeff-En:   0.000D+00 0.000D+00 0.000D+00 0.100D+01
 Coeff:      0.569D-03-0.958D-03 0.123D-02-0.778D-03 0.416D-02-0.504D-01
 Coeff:     -0.109D+00-0.994D-02 0.540D+00 0.625D+00
 Gap=     0.050 Goal=   None    Shift=    0.000
 Gap=     0.049 Goal=   None    Shift=    0.000
 RMSDP=2.79D-05 MaxDP=1.75D-03 DE=-5.55D-05 OVMax= 5.10D-03

 Cycle  11  Pass 1  IDiag  1:
 RMSU=  1.66D-05    CP:  9.63D-01  3.69D-01  6.41D-01  5.24D-01  7.61D-01
                    CP:  9.04D-01  9.66D-01  8.09D-01  1.30D+00  9.14D-01
 E= -1339.31770252739     Delta-E=       -0.000033145513 Rises=F Damp=F
 DIIS: error= 1.21D-04 at cycle  11 NSaved=  11.
 NSaved=11 IEnMin=11 EnMin= -1339.31770252739     IErMin=11 ErrMin= 1.21D-04
 ErrMax= 1.21D-04  0.00D+00 EMaxC= 1.00D-01 BMatC= 1.79D-05 BMatP= 7.87D-05
 IDIUse=3 WtCom= 9.99D-01 WtEn= 1.21D-03
 Coeff-Com:  0.878D-03-0.165D-02 0.105D-02 0.709D-03 0.316D-02-0.290D-01
 Coeff-Com: -0.724D-01-0.549D-01 0.861D-01 0.394D+00 0.672D+00
 Coeff-En:   0.000D+00 0.000D+00 0.000D+00 0.000D+00 0.000D+00 0.000D+00
 Coeff-En:   0.000D+00 0.000D+00 0.000D+00 0.000D+00 0.100D+01
 Coeff:      0.877D-03-0.164D-02 0.105D-02 0.708D-03 0.316D-02-0.290D-01
 Coeff:     -0.723D-01-0.548D-01 0.860D-01 0.394D+00 0.672D+00
 Gap=     0.050 Goal=   None    Shift=    0.000
 Gap=     0.049 Goal=   None    Shift=    0.000
 RMSDP=1.28D-05 MaxDP=8.36D-04 DE=-3.31D-05 OVMax= 1.77D-03

 Cycle  12  Pass 1  IDiag  1:
 RMSU=  7.24D-06    CP:  9.63D-01  3.69D-01  6.41D-01  5.24D-01  7.61D-01
                    CP:  9.06D-01  9.75D-01  8.45D-01  1.40D+00  1.15D+00
                    CP:  9.60D-01
 E= -1339.31771091999     Delta-E=       -0.000008392603 Rises=F Damp=F
 DIIS: error= 5.00D-05 at cycle  12 NSaved=  12.
 NSaved=12 IEnMin=12 EnMin= -1339.31771091999     IErMin=12 ErrMin= 5.00D-05
 ErrMax= 5.00D-05  0.00D+00 EMaxC= 1.00D-01 BMatC= 4.38D-06 BMatP= 1.79D-05
 IDIUse=1 WtCom= 1.00D+00 WtEn= 0.00D+00
 Coeff-Com:  0.732D-04-0.246D-03 0.402D-03 0.695D-03 0.373D-03 0.165D-03
 Coeff-Com: -0.659D-02-0.270D-01-0.127D+00 0.456D-01 0.394D+00 0.719D+00
 Coeff:      0.732D-04-0.246D-03 0.402D-03 0.695D-03 0.373D-03 0.165D-03
 Coeff:     -0.659D-02-0.270D-01-0.127D+00 0.456D-01 0.394D+00 0.719D+00
 Gap=     0.050 Goal=   None    Shift=    0.000
 Gap=     0.049 Goal=   None    Shift=    0.000
 RMSDP=6.83D-06 MaxDP=6.59D-04 DE=-8.39D-06 OVMax= 9.16D-04

 Cycle  13  Pass 1  IDiag  1:
 RMSU=  3.77D-06    CP:  9.63D-01  3.69D-01  6.41D-01  5.24D-01  7.60D-01
                    CP:  9.06D-01  9.79D-01  8.54D-01  1.46D+00  1.26D+00
                    CP:  1.12D+00  9.53D-01
 E= -1339.31771299785     Delta-E=       -0.000002077860 Rises=F Damp=F
 DIIS: error= 1.67D-05 at cycle  13 NSaved=  13.
 NSaved=13 IEnMin=13 EnMin= -1339.31771299785     IErMin=13 ErrMin= 1.67D-05
 ErrMax= 1.67D-05  0.00D+00 EMaxC= 1.00D-01 BMatC= 7.19D-07 BMatP= 4.38D-06
 IDIUse=1 WtCom= 1.00D+00 WtEn= 0.00D+00
 Coeff-Com:  0.900D-04-0.100D-03-0.106D-03 0.119D-03-0.876D-03 0.719D-02
 Coeff-Com:  0.152D-01 0.468D-03-0.824D-01-0.732D-01 0.331D-01 0.357D+00
 Coeff-Com:  0.744D+00
 Coeff:      0.900D-04-0.100D-03-0.106D-03 0.119D-03-0.876D-03 0.719D-02
 Coeff:      0.152D-01 0.468D-03-0.824D-01-0.732D-01 0.331D-01 0.357D+00
 Coeff:      0.744D+00
 Gap=     0.050 Goal=   None    Shift=    0.000
 Gap=     0.049 Goal=   None    Shift=    0.000
 RMSDP=3.08D-06 MaxDP=2.28D-04 DE=-2.08D-06 OVMax= 4.21D-04

 Cycle  14  Pass 1  IDiag  1:
 RMSU=  1.67D-06    CP:  9.63D-01  3.69D-01  6.41D-01  5.24D-01  7.60D-01
                    CP:  9.06D-01  9.81D-01  8.61D-01  1.47D+00  1.29D+00
                    CP:  1.21D+00  1.11D+00  9.45D-01
 E= -1339.31771329628     Delta-E=       -0.000000298427 Rises=F Damp=F
 DIIS: error= 1.24D-05 at cycle  14 NSaved=  14.
 NSaved=14 IEnMin=14 EnMin= -1339.31771329628     IErMin=14 ErrMin= 1.24D-05
 ErrMax= 1.24D-05  0.00D+00 EMaxC= 1.00D-01 BMatC= 1.90D-07 BMatP= 7.19D-07
 IDIUse=1 WtCom= 1.00D+00 WtEn= 0.00D+00
 Coeff-Com: -0.192D-05 0.487D-04-0.146D-03-0.308D-04-0.279D-03 0.309D-02
 Coeff-Com:  0.734D-02 0.225D-02-0.241D-01-0.426D-01-0.296D-01 0.946D-01
 Coeff-Com:  0.385D+00 0.604D+00
 Coeff:     -0.192D-05 0.487D-04-0.146D-03-0.308D-04-0.279D-03 0.309D-02
 Coeff:      0.734D-02 0.225D-02-0.241D-01-0.426D-01-0.296D-01 0.946D-01
 Coeff:      0.385D+00 0.604D+00
 Gap=     0.050 Goal=   None    Shift=    0.000
 Gap=     0.049 Goal=   None    Shift=    0.000
 RMSDP=1.05D-06 MaxDP=6.28D-05 DE=-2.98D-07 OVMax= 1.35D-04

 Cycle  15  Pass 1  IDiag  1:
 RMSU=  5.90D-07    CP:  9.63D-01  3.69D-01  6.41D-01  5.24D-01  7.61D-01
                    CP:  9.06D-01  9.81D-01  8.61D-01  1.47D+00  1.31D+00
                    CP:  1.23D+00  1.15D+00  1.00D+00  7.65D-01
 E= -1339.31771335412     Delta-E=       -0.000000057837 Rises=F Damp=F
 DIIS: error= 3.21D-06 at cycle  15 NSaved=  15.
 NSaved=15 IEnMin=15 EnMin= -1339.31771335412     IErMin=15 ErrMin= 3.21D-06
 ErrMax= 3.21D-06  0.00D+00 EMaxC= 1.00D-01 BMatC= 2.45D-08 BMatP= 1.90D-07
 IDIUse=1 WtCom= 1.00D+00 WtEn= 0.00D+00
 Coeff-Com:  0.302D-04-0.282D-04-0.527D-04-0.118D-04 0.919D-04-0.206D-03
 Coeff-Com: -0.422D-04 0.675D-03 0.565D-02-0.448D-02-0.162D-01-0.197D-01
 Coeff-Com:  0.104D-01 0.217D+00 0.806D+00
 Coeff:      0.302D-04-0.282D-04-0.527D-04-0.118D-04 0.919D-04-0.206D-03
 Coeff:     -0.422D-04 0.675D-03 0.565D-02-0.448D-02-0.162D-01-0.197D-01
 Coeff:      0.104D-01 0.217D+00 0.806D+00
 Gap=     0.050 Goal=   None    Shift=    0.000
 Gap=     0.049 Goal=   None    Shift=    0.000
 RMSDP=5.33D-07 MaxDP=3.48D-05 DE=-5.78D-08 OVMax= 8.10D-05

 Cycle  16  Pass 1  IDiag  1:
 RMSU=  4.58D-07    CP:  9.63D-01  3.69D-01  6.41D-01  5.24D-01  7.61D-01
                    CP:  9.06D-01  9.81D-01  8.61D-01  1.47D+00  1.31D+00
                    CP:  1.24D+00  1.16D+00  1.02D+00  8.09D-01  9.76D-01
 E= -1339.31771335875     Delta-E=       -0.000000004630 Rises=F Damp=F
 DIIS: error= 3.08D-06 at cycle  16 NSaved=  16.
 NSaved=16 IEnMin=16 EnMin= -1339.31771335875     IErMin=16 ErrMin= 3.08D-06
 ErrMax= 3.08D-06  0.00D+00 EMaxC= 1.00D-01 BMatC= 1.59D-08 BMatP= 2.45D-08
 IDIUse=1 WtCom= 1.00D+00 WtEn= 0.00D+00
 Coeff-Com:  0.110D-04-0.150D-04-0.123D-05-0.279D-05 0.108D-03-0.699D-03
 Coeff-Com: -0.135D-02 0.128D-03 0.870D-02 0.574D-02-0.440D-02-0.332D-01
 Coeff-Com: -0.862D-01 0.317D-02 0.599D+00 0.509D+00
 Coeff:      0.110D-04-0.150D-04-0.123D-05-0.279D-05 0.108D-03-0.699D-03
 Coeff:     -0.135D-02 0.128D-03 0.870D-02 0.574D-02-0.440D-02-0.332D-01
 Coeff:     -0.862D-01 0.317D-02 0.599D+00 0.509D+00
 Gap=     0.050 Goal=   None    Shift=    0.000
 Gap=     0.049 Goal=   None    Shift=    0.000
 RMSDP=3.12D-07 MaxDP=1.80D-05 DE=-4.63D-09 OVMax= 6.65D-05

 Cycle  17  Pass 1  IDiag  1:
 RMSU=  1.98D-07    CP:  9.63D-01  3.69D-01  6.41D-01  5.24D-01  7.61D-01
                    CP:  9.06D-01  9.81D-01  8.61D-01  1.47D+00  1.31D+00
                    CP:  1.24D+00  1.16D+00  1.03D+00  8.38D-01  1.21D+00
                    CP:  6.05D-01
 E= -1339.31771336236     Delta-E=       -0.000000003608 Rises=F Damp=F
 DIIS: error= 1.33D-06 at cycle  17 NSaved=  17.
 NSaved=17 IEnMin=17 EnMin= -1339.31771336236     IErMin=17 ErrMin= 1.33D-06
 ErrMax= 1.33D-06  0.00D+00 EMaxC= 1.00D-01 BMatC= 4.02D-09 BMatP= 1.59D-08
 IDIUse=1 WtCom= 1.00D+00 WtEn= 0.00D+00
 Coeff-Com: -0.324D-05 0.410D-05 0.697D-05-0.362D-05 0.509D-04-0.377D-03
 Coeff-Com: -0.718D-03 0.977D-04 0.501D-02 0.384D-02-0.173D-02-0.203D-01
 Coeff-Com: -0.587D-01-0.156D-01 0.327D+00 0.351D+00 0.411D+00
 Coeff:     -0.324D-05 0.410D-05 0.697D-05-0.362D-05 0.509D-04-0.377D-03
 Coeff:     -0.718D-03 0.977D-04 0.501D-02 0.384D-02-0.173D-02-0.203D-01
 Coeff:     -0.587D-01-0.156D-01 0.327D+00 0.351D+00 0.411D+00
 Gap=     0.050 Goal=   None    Shift=    0.000
 Gap=     0.049 Goal=   None    Shift=    0.000
 RMSDP=1.18D-07 MaxDP=5.98D-06 DE=-3.61D-09 OVMax= 2.19D-05

 Cycle  18  Pass 1  IDiag  1:
 RMSU=  7.79D-08    CP:  9.63D-01  3.69D-01  6.41D-01  5.24D-01  7.61D-01
                    CP:  9.06D-01  9.81D-01  8.61D-01  1.47D+00  1.31D+00
                    CP:  1.24D+00  1.16D+00  1.03D+00  8.54D-01  1.19D+00
                    CP:  6.91D-01  6.78D-01
 E= -1339.31771336338     Delta-E=       -0.000000001021 Rises=F Damp=F
 DIIS: error= 6.53D-07 at cycle  18 NSaved=  18.
 NSaved=18 IEnMin=18 EnMin= -1339.31771336338     IErMin=18 ErrMin= 6.53D-07
 ErrMax= 6.53D-07  0.00D+00 EMaxC= 1.00D-01 BMatC= 4.32D-10 BMatP= 4.02D-09
 IDIUse=1 WtCom= 1.00D+00 WtEn= 0.00D+00
 Coeff-Com: -0.398D-05 0.539D-05 0.586D-05-0.303D-05-0.673D-05-0.155D-04
 Coeff-Com:  0.123D-04 0.597D-04 0.663D-03 0.362D-03-0.666D-03-0.368D-02
 Coeff-Com: -0.752D-02 0.443D-02 0.293D-01 0.175D-01 0.115D+00 0.845D+00
 Coeff:     -0.398D-05 0.539D-05 0.586D-05-0.303D-05-0.673D-05-0.155D-04
 Coeff:      0.123D-04 0.597D-04 0.663D-03 0.362D-03-0.666D-03-0.368D-02
 Coeff:     -0.752D-02 0.443D-02 0.293D-01 0.175D-01 0.115D+00 0.845D+00
 Gap=     0.050 Goal=   None    Shift=    0.000
 Gap=     0.049 Goal=   None    Shift=    0.000
 RMSDP=5.19D-08 MaxDP=4.83D-06 DE=-1.02D-09 OVMax= 8.81D-06

 Cycle  19  Pass 1  IDiag  1:
 RMSU=  3.21D-08    CP:  9.63D-01  3.69D-01  6.41D-01  5.24D-01  7.61D-01
                    CP:  9.06D-01  9.81D-01  8.61D-01  1.47D+00  1.31D+00
                    CP:  1.24D+00  1.16D+00  1.03D+00  8.54D-01  1.20D+00
                    CP:  6.98D-01  8.06D-01  1.19D+00
 E= -1339.31771336351     Delta-E=       -0.000000000133 Rises=F Damp=F
 DIIS: error= 2.54D-07 at cycle  19 NSaved=  19.
 NSaved=19 IEnMin=19 EnMin= -1339.31771336351     IErMin=19 ErrMin= 2.54D-07
 ErrMax= 2.54D-07  0.00D+00 EMaxC= 1.00D-01 BMatC= 7.03D-11 BMatP= 4.32D-10
 IDIUse=1 WtCom= 1.00D+00 WtEn= 0.00D+00
 Coeff-Com: -0.146D-05 0.198D-05 0.108D-05-0.631D-06-0.854D-05 0.540D-04
 Coeff-Com:  0.114D-03 0.169D-05-0.546D-03-0.485D-03-0.219D-03 0.172D-02
 Coeff-Com:  0.771D-02 0.809D-02-0.426D-01-0.682D-01-0.801D-01 0.201D+00
 Coeff-Com:  0.974D+00
 Coeff:     -0.146D-05 0.198D-05 0.108D-05-0.631D-06-0.854D-05 0.540D-04
 Coeff:      0.114D-03 0.169D-05-0.546D-03-0.485D-03-0.219D-03 0.172D-02
 Coeff:      0.771D-02 0.809D-02-0.426D-01-0.682D-01-0.801D-01 0.201D+00
 Coeff:      0.974D+00
 Gap=     0.050 Goal=   None    Shift=    0.000
 Gap=     0.049 Goal=   None    Shift=    0.000
 RMSDP=3.56D-08 MaxDP=3.94D-06 DE=-1.33D-10 OVMax= 7.35D-06

 Cycle  20  Pass 1  IDiag  1:
 RMSU=  1.31D-08    CP:  9.63D-01  3.69D-01  6.41D-01  5.24D-01  7.61D-01
                    CP:  9.06D-01  9.81D-01  8.61D-01  1.47D+00  1.31D+00
                    CP:  1.24D+00  1.16D+00  1.03D+00  8.55D-01  1.20D+00
                    CP:  7.11D-01  8.76D-01  1.45D+00  1.33D+00
 E= -1339.31771336354     Delta-E=       -0.000000000032 Rises=F Damp=F
 DIIS: error= 1.30D-07 at cycle  20 NSaved=  20.
 NSaved=20 IEnMin=20 EnMin= -1339.31771336354     IErMin=20 ErrMin= 1.30D-07
 ErrMax= 1.30D-07  0.00D+00 EMaxC= 1.00D-01 BMatC= 1.91D-11 BMatP= 7.03D-11
 IDIUse=1 WtCom= 1.00D+00 WtEn= 0.00D+00
 Coeff-Com:  0.571D-06-0.915D-06-0.147D-06 0.264D-06-0.261D-05 0.259D-04
 Coeff-Com:  0.480D-04-0.172D-04-0.346D-03-0.281D-03-0.298D-04 0.131D-02
 Coeff-Com:  0.507D-02 0.407D-02-0.272D-01-0.426D-01-0.734D-01-0.510D-01
 Coeff-Com:  0.616D+00 0.568D+00
 Coeff:      0.571D-06-0.915D-06-0.147D-06 0.264D-06-0.261D-05 0.259D-04
 Coeff:      0.480D-04-0.172D-04-0.346D-03-0.281D-03-0.298D-04 0.131D-02
 Coeff:      0.507D-02 0.407D-02-0.272D-01-0.426D-01-0.734D-01-0.510D-01
 Coeff:      0.616D+00 0.568D+00
 Gap=     0.050 Goal=   None    Shift=    0.000
 Gap=     0.049 Goal=   None    Shift=    0.000
 RMSDP=1.25D-08 MaxDP=1.96D-06 DE=-3.21D-11 OVMax= 2.13D-06

 Cycle  21  Pass 1  IDiag  1:
 Restarting incremental Fock formation.
 E= -1339.31771336355     Delta-E=       -0.000000000008 Rises=F Damp=F
 DIIS: error= 3.73D-08 at cycle  21 NSaved=  20.
 NSaved=20 IEnMin=20 EnMin= -1339.31771336355     IErMin=20 ErrMin= 3.73D-08
 ErrMax= 3.73D-08  0.00D+00 EMaxC= 1.00D-01 BMatC= 2.17D-12 BMatP= 1.91D-11
 IDIUse=1 WtCom= 1.00D+00 WtEn= 0.00D+00
 Coeff-Com:  0.600D-07-0.235D-06-0.158D-06 0.534D-06 0.249D-05 0.653D-05
 Coeff-Com: -0.516D-05-0.143D-04-0.532D-04 0.209D-05 0.107D-03 0.232D-03
 Coeff-Com:  0.365D-03 0.220D-03-0.454D-03-0.922D-02-0.568D-01 0.830D-02
 Coeff-Com:  0.139D+00 0.919D+00
 Coeff:      0.600D-07-0.235D-06-0.158D-06 0.534D-06 0.249D-05 0.653D-05
 Coeff:     -0.516D-05-0.143D-04-0.532D-04 0.209D-05 0.107D-03 0.232D-03
 Coeff:      0.365D-03 0.220D-03-0.454D-03-0.922D-02-0.568D-01 0.830D-02
 Coeff:      0.139D+00 0.919D+00
 Gap=     0.050 Goal=   None    Shift=    0.000
 Gap=     0.049 Goal=   None    Shift=    0.000
 RMSDP=6.56D-09 MaxDP=6.52D-07 DE=-7.73D-12 OVMax= 1.28D-06

 Error on total polarization charges =  0.01843
 SCF Done:  E(UTPSSh) =  -1339.31771336     A.U. after   21 cycles
            NFock= 21  Conv=0.66D-08     -V/T= 2.0706
 <Sx>= 0.0000 <Sy>= 0.0000 <Sz>= 1.0000 <S**2>= 2.0200 S= 1.0067
 <L.S>=  0.00000000000    
 KE= 1.250979042545D+03 PE=-6.806289860827D+03 EE= 2.364982183854D+03
 Annihilation of the first spin contaminant:
 S**2 before annihilation     2.0200,   after     2.0002
 Leave Link  502 at Sun Feb  8 22:12:23 2026, MaxMem= 16106127360 cpu:            4270.4 elap:              77.8
 (Enter /home/software/g16-shuai/g16/l801.exe)
 DoSCS=F DFT=T ScalE2(SS,OS)=  1.000000  1.000000
 Range of M.O.s used for correlation:     1   367
 NBasis=   367 NAE=    81 NBE=    79 NFC=     0 NFV=     0
 NROrb=    367 NOA=    81 NOB=    79 NVA=   286 NVB=   288

 **** Warning!!: The largest alpha MO coefficient is  0.12148562D+02


 **** Warning!!: The smallest alpha delta epsilon is  0.49782932D-01


 **** Warning!!: The largest beta MO coefficient is  0.12237032D+02


 **** Warning!!: The smallest beta delta epsilon is  0.49380489D-01

 Leave Link  801 at Sun Feb  8 22:12:23 2026, MaxMem= 16106127360 cpu:               1.1 elap:               0.0
 (Enter /home/software/g16-shuai/g16/l1101.exe)
 Using compressed storage, NAtomX=    33.
 Will process     34 centers per pass.
   1 Symmetry operations used in ECPInt.
 ECPInt:  NShTT=   14028 NPrTT=   51030 LenC2=   12712 LenP2D=   32462.
 LDataN:  DoStor=T MaxTD1= 9 Len=  602
 Number of processors reduced to  44 by ecpmxn.
 R6Disp: Adding Grimme-D3(BJ) dispersion energy 1st derivatives to the gradient.
 Leave Link 1101 at Sun Feb  8 22:12:24 2026, MaxMem= 16106127360 cpu:              55.8 elap:               1.1
 (Enter /home/software/g16-shuai/g16/l1102.exe)
 Symmetrizing basis deriv contribution to polar:
 IMax=3 JMax=2 DiffMx= 0.00D+00
 Leave Link 1102 at Sun Feb  8 22:12:24 2026, MaxMem= 16106127360 cpu:               1.7 elap:               0.1
 (Enter /home/software/g16-shuai/g16/l1110.exe)
 Forming Gx(P) for the SCF density, NAtomX=    33.
 Integral derivatives from FoFJK, PRISM(SPDF).
 Do as many integral derivatives as possible in FoFJK.
 G2DrvN: MDV=   16106123825.
 G2DrvN: will do    34 centers at a time, making    1 passes.
 Calling FoFCou, ICntrl=  3107 FMM=F I1Cent=   0 AccDes= 0.00D+00.
 FoFJK:  IHMeth= 1 ICntrl=    3107 DoSepK=F KAlg= 0 I1Cent=           0 FoldK=F
 IRaf=         0 NMat=       1 IRICut=       1 DoRegI=T DoRafI=F ISym2E= 0 IDoP0=0 IntGTp=1.
 FoFCou: FMM=F IPFlag=           0 FMFlag=      100000 FMFlg1=           0
         NFxFlg=           0 DoJE=F BraDBF=F KetDBF=F FulRan=T
         wScrn=  0.000000 ICntrl=      3107 IOpCl=  1 I1Cent=           0 NGrid=           0
         NMat0=    1 NMatS0=      1 NMatT0=    0 NMatD0=    1 NMtDS0=    0 NMtDT0=    0
 Symmetry not used in FoFCou.
 Defaulting to unpruned grid for atomic number  78.
 Defaulting to unpruned grid for atomic number  78.
 Defaulting to unpruned grid for atomic number  78.
 Defaulting to unpruned grid for atomic number  78.
 Defaulting to unpruned grid for atomic number  78.
 Defaulting to unpruned grid for atomic number  78.
 Defaulting to unpruned grid for atomic number  78.
 Defaulting to unpruned grid for atomic number  78.
 Defaulting to unpruned grid for atomic number  78.
 Defaulting to unpruned grid for atomic number  78.
 Defaulting to unpruned grid for atomic number  78.
 Defaulting to unpruned grid for atomic number  78.
 Defaulting to unpruned grid for atomic number  78.
 Defaulting to unpruned grid for atomic number  78.
 Defaulting to unpruned grid for atomic number  78.
 Defaulting to unpruned grid for atomic number  78.
 Defaulting to unpruned grid for atomic number  78.
 Defaulting to unpruned grid for atomic number  78.
 Defaulting to unpruned grid for atomic number  78.
 Defaulting to unpruned grid for atomic number  78.
 Defaulting to unpruned grid for atomic number  78.
 Defaulting to unpruned grid for atomic number  78.
 Defaulting to unpruned grid for atomic number  78.
 Defaulting to unpruned grid for atomic number  78.
 Defaulting to unpruned grid for atomic number  78.
 Defaulting to unpruned grid for atomic number  78.
 Defaulting to unpruned grid for atomic number  78.
 Defaulting to unpruned grid for atomic number  78.
 Defaulting to unpruned grid for atomic number  78.
 Defaulting to unpruned grid for atomic number  78.
 Defaulting to unpruned grid for atomic number  78.
 Defaulting to unpruned grid for atomic number  78.
 Defaulting to unpruned grid for atomic number  78.
 Defaulting to unpruned grid for atomic number  78.
 Defaulting to unpruned grid for atomic number  78.
 Defaulting to unpruned grid for atomic number  78.
 Defaulting to unpruned grid for atomic number  78.
 Defaulting to unpruned grid for atomic number  78.
 Defaulting to unpruned grid for atomic number  78.
 Defaulting to unpruned grid for atomic number  78.
 Defaulting to unpruned grid for atomic number  78.
 Defaulting to unpruned grid for atomic number  78.
 Defaulting to unpruned grid for atomic number  78.
 Defaulting to unpruned grid for atomic number  78.
 Defaulting to unpruned grid for atomic number  78.
 Defaulting to unpruned grid for atomic number  78.
 Defaulting to unpruned grid for atomic number  78.
 Defaulting to unpruned grid for atomic number  78.
 Defaulting to unpruned grid for atomic number  78.
 Defaulting to unpruned grid for atomic number  78.
 Defaulting to unpruned grid for atomic number  78.
 Defaulting to unpruned grid for atomic number  78.
 Defaulting to unpruned grid for atomic number  78.
 Defaulting to unpruned grid for atomic number  78.
 Defaulting to unpruned grid for atomic number  78.
 Defaulting to unpruned grid for atomic number  78.
 NEqPCM:  Using equilibrium solvation (IEInf=0, Eps=   8.9300, EpsInf=   2.0283)
 G2PCM: DoFxE=T DoFxN=T DoGrad=T DoDP/DQ/DG/TGxP=FFFF NFrqRd=   0 IEInf=0 SqF1=F DoCFld=F IF1Alg=4.
 GePol: Maximum number of non-zero 1st derivatives   =     239
 End of G2Drv F.D. properties file   721 does not exist.
 End of G2Drv F.D. properties file   722 does not exist.
 End of G2Drv F.D. properties file   788 does not exist.
 Leave Link 1110 at Sun Feb  8 22:14:39 2026, MaxMem= 16106127360 cpu:            7539.0 elap:             135.4
 (Enter /home/software/g16-shuai/g16/l1002.exe)
 Minotr:  UHF open shell wavefunction.
          IDoAtm=111111111111111111111111111111111
 NEqPCM:  Using equilibrium solvation (IEInf=0, Eps=   8.9300, EpsInf=   2.0283)
          Direct CPHF calculation.
          Differentiating once with respect to electric field.
                with respect to dipole field.
          Differentiating once with respect to nuclear coordinates.
          Requested convergence is 1.0D-08 RMS, and 1.0D-07 maximum.
          Secondary convergence is 1.0D-12 RMS, and 1.0D-12 maximum.
          NewPWx=T KeepS1=F KeepF1=F KeepIn=T MapXYZ=F SortEE=F KeepMc=T.
 Defaulting to unpruned grid for atomic number  78.
         9996 words used for storage of precomputed grid.
 Two-electron integral symmetry not used.
          MDV=   16106127360 using IRadAn=       1.
          Solving linear equations simultaneously, MaxMat=     336.
 FoF2E skips out because all densities are zero.
 CalDSu exits because no D1Ps are significant.
 FoFJK:  IHMeth= 1 ICntrl=       0 DoSepK=F KAlg= 0 I1Cent=           0 FoldK=F
 IRaf= 850000000 NMat=      99 IRICut=     247 DoRegI=T DoRafI=T ISym2E= 0 IDoP0=3 IntGTp=3.
 Defaulting to unpruned grid for atomic number  78.
 Defaulting to unpruned grid for atomic number  78.
 Defaulting to unpruned grid for atomic number  78.
 Defaulting to unpruned grid for atomic number  78.
 Defaulting to unpruned grid for atomic number  78.
 Defaulting to unpruned grid for atomic number  78.
 Defaulting to unpruned grid for atomic number  78.
 Defaulting to unpruned grid for atomic number  78.
 Defaulting to unpruned grid for atomic number  78.
 Defaulting to unpruned grid for atomic number  78.
 Defaulting to unpruned grid for atomic number  78.
 Defaulting to unpruned grid for atomic number  78.
 Defaulting to unpruned grid for atomic number  78.
 Defaulting to unpruned grid for atomic number  78.
 Defaulting to unpruned grid for atomic number  78.
 Defaulting to unpruned grid for atomic number  78.
 Defaulting to unpruned grid for atomic number  78.
 Defaulting to unpruned grid for atomic number  78.
 Defaulting to unpruned grid for atomic number  78.
 Defaulting to unpruned grid for atomic number  78.
 Defaulting to unpruned grid for atomic number  78.
 Defaulting to unpruned grid for atomic number  78.
 Defaulting to unpruned grid for atomic number  78.
 Defaulting to unpruned grid for atomic number  78.
 Defaulting to unpruned grid for atomic number  78.
 Defaulting to unpruned grid for atomic number  78.
 Defaulting to unpruned grid for atomic number  78.
 Defaulting to unpruned grid for atomic number  78.
 Defaulting to unpruned grid for atomic number  78.
 Defaulting to unpruned grid for atomic number  78.
 Defaulting to unpruned grid for atomic number  78.
 Defaulting to unpruned grid for atomic number  78.
 Defaulting to unpruned grid for atomic number  78.
 Defaulting to unpruned grid for atomic number  78.
 Defaulting to unpruned grid for atomic number  78.
 Defaulting to unpruned grid for atomic number  78.
 Defaulting to unpruned grid for atomic number  78.
 Defaulting to unpruned grid for atomic number  78.
 Defaulting to unpruned grid for atomic number  78.
 Defaulting to unpruned grid for atomic number  78.
 Defaulting to unpruned grid for atomic number  78.
 Defaulting to unpruned grid for atomic number  78.
 Defaulting to unpruned grid for atomic number  78.
 Defaulting to unpruned grid for atomic number  78.
 Defaulting to unpruned grid for atomic number  78.
 Defaulting to unpruned grid for atomic number  78.
 Defaulting to unpruned grid for atomic number  78.
 Defaulting to unpruned grid for atomic number  78.
 Defaulting to unpruned grid for atomic number  78.
 Defaulting to unpruned grid for atomic number  78.
 Defaulting to unpruned grid for atomic number  78.
 Defaulting to unpruned grid for atomic number  78.
 Defaulting to unpruned grid for atomic number  78.
 Defaulting to unpruned grid for atomic number  78.
 Defaulting to unpruned grid for atomic number  78.
 Defaulting to unpruned grid for atomic number  78.
          There are   102 degrees of freedom in the 1st order CPHF.  IDoFFX=6 NUNeed=     3.
     99 vectors produced by pass  0 Test12= 4.59D-14 1.00D-09 XBig12= 2.89D+03 3.21D+01.
 AX will form    99 AO Fock derivatives at one time.
     99 vectors produced by pass  1 Test12= 4.59D-14 1.00D-09 XBig12= 9.82D+02 7.92D+00.
     99 vectors produced by pass  2 Test12= 4.59D-14 1.00D-09 XBig12= 4.78D+01 1.12D+00.
     99 vectors produced by pass  3 Test12= 4.59D-14 1.00D-09 XBig12= 6.45D-01 1.18D-01.
     99 vectors produced by pass  4 Test12= 4.59D-14 1.00D-09 XBig12= 5.51D-03 1.19D-02.
     99 vectors produced by pass  5 Test12= 4.59D-14 1.00D-09 XBig12= 2.87D-05 5.68D-04.
     80 vectors produced by pass  6 Test12= 4.59D-14 1.00D-09 XBig12= 1.02D-07 2.49D-05.
     30 vectors produced by pass  7 Test12= 4.59D-14 1.00D-09 XBig12= 3.82D-10 2.27D-06.
      3 vectors produced by pass  8 Test12= 4.59D-14 1.00D-09 XBig12= 1.28D-12 8.12D-08.
      2 vectors produced by pass  9 Test12= 4.59D-14 1.00D-09 XBig12= 6.76D-15 5.94D-09.
 InvSVY:  IOpt=1 It=  1 EMax= 6.39D-14
 Solved reduced A of dimension   709 with   102 vectors.
 FullF1:  Do perturbations      1 to       3.
 Isotropic polarizability for W=    0.000000      386.35 Bohr**3.
 End of Minotr F.D. properties file   721 does not exist.
 End of Minotr F.D. properties file   722 does not exist.
 End of Minotr F.D. properties file   788 does not exist.
 Leave Link 1002 at Sun Feb  8 22:19:27 2026, MaxMem= 16106127360 cpu:           15999.5 elap:             287.2
 (Enter /home/software/g16-shuai/g16/l601.exe)
 Copying SCF densities to generalized density rwf, IOpCl= 1 IROHF=0.

 **********************************************************************

            Population analysis using the SCF Density.

 **********************************************************************

 Alpha  occ. eigenvalues -- -101.28300 -14.33665 -14.33663 -14.32894 -14.32892
 Alpha  occ. eigenvalues --  -10.19006 -10.19006 -10.18695 -10.18691 -10.17317
 Alpha  occ. eigenvalues --  -10.17316 -10.17256 -10.17254 -10.16418 -10.16411
 Alpha  occ. eigenvalues --  -10.15470 -10.14278 -10.14277 -10.14147  -9.30592
 Alpha  occ. eigenvalues --   -7.05725  -7.05436  -7.05351  -3.90085  -2.17067
 Alpha  occ. eigenvalues --   -2.15589  -2.13625  -1.01647  -1.01526  -0.92120
 Alpha  occ. eigenvalues --   -0.91549  -0.83019  -0.77674  -0.76679  -0.73020
 Alpha  occ. eigenvalues --   -0.71546  -0.71290  -0.70286  -0.69323  -0.64411
 Alpha  occ. eigenvalues --   -0.62007  -0.61051  -0.58093  -0.56002  -0.55283
 Alpha  occ. eigenvalues --   -0.54807  -0.50521  -0.48150  -0.47147  -0.46870
 Alpha  occ. eigenvalues --   -0.46843  -0.46827  -0.44613  -0.44279  -0.43683
 Alpha  occ. eigenvalues --   -0.42779  -0.42485  -0.41506  -0.40925  -0.40786
 Alpha  occ. eigenvalues --   -0.39923  -0.38328  -0.37884  -0.36989  -0.36405
 Alpha  occ. eigenvalues --   -0.36030  -0.33014  -0.31577  -0.31372  -0.30105
 Alpha  occ. eigenvalues --   -0.29366  -0.28356  -0.27185  -0.26544  -0.24677
 Alpha  occ. eigenvalues --   -0.24119  -0.23477  -0.22192  -0.21506  -0.21359
 Alpha  occ. eigenvalues --   -0.09984
 Alpha virt. eigenvalues --   -0.05006  -0.02389   0.00301   0.00336   0.00711
 Alpha virt. eigenvalues --    0.03880   0.06128   0.06513   0.06729   0.07133
 Alpha virt. eigenvalues --    0.07909   0.08405   0.09697   0.10047   0.10440
 Alpha virt. eigenvalues --    0.11704   0.11832   0.12827   0.13459   0.14474
 Alpha virt. eigenvalues --    0.14493   0.14697   0.14873   0.15391   0.15850
 Alpha virt. eigenvalues --    0.16990   0.17232   0.18771   0.19530   0.19622
 Alpha virt. eigenvalues --    0.22153   0.23341   0.24176   0.25027   0.26390
 Alpha virt. eigenvalues --    0.27924   0.28784   0.29929   0.31259   0.32193
 Alpha virt. eigenvalues --    0.33398   0.35131   0.35855   0.36289   0.36433
 Alpha virt. eigenvalues --    0.37634   0.37928   0.39324   0.39972   0.41287
 Alpha virt. eigenvalues --    0.41941   0.42947   0.43600   0.44286   0.44356
 Alpha virt. eigenvalues --    0.45681   0.45771   0.46312   0.46377   0.48031
 Alpha virt. eigenvalues --    0.48328   0.49228   0.49284   0.50402   0.50473
 Alpha virt. eigenvalues --    0.52127   0.53664   0.53822   0.53971   0.54660
 Alpha virt. eigenvalues --    0.55160   0.56166   0.58618   0.59331   0.59610
 Alpha virt. eigenvalues --    0.61320   0.62357   0.62801   0.63052   0.63758
 Alpha virt. eigenvalues --    0.64111   0.65058   0.65111   0.65345   0.65392
 Alpha virt. eigenvalues --    0.65986   0.66386   0.67147   0.67176   0.68065
 Alpha virt. eigenvalues --    0.68153   0.68429   0.68636   0.69841   0.70611
 Alpha virt. eigenvalues --    0.71823   0.72580   0.73272   0.74247   0.74347
 Alpha virt. eigenvalues --    0.77011   0.77723   0.78606   0.78820   0.80920
 Alpha virt. eigenvalues --    0.82101   0.83097   0.84741   0.84823   0.85193
 Alpha virt. eigenvalues --    0.86205   0.88502   0.89048   0.90210   0.90288
 Alpha virt. eigenvalues --    0.90986   0.91026   0.92130   0.94460   0.96593
 Alpha virt. eigenvalues --    0.99451   1.00136   1.01612   1.03838   1.04037
 Alpha virt. eigenvalues --    1.04820   1.07080   1.09815   1.12589   1.15216
 Alpha virt. eigenvalues --    1.15929   1.16107   1.18056   1.18595   1.19216
 Alpha virt. eigenvalues --    1.20220   1.20320   1.20341   1.20712   1.22444
 Alpha virt. eigenvalues --    1.23443   1.23983   1.24979   1.28492   1.30249
 Alpha virt. eigenvalues --    1.32143   1.33035   1.33452   1.34031   1.34359
 Alpha virt. eigenvalues --    1.36545   1.36982   1.37070   1.41439   1.41717
 Alpha virt. eigenvalues --    1.42649   1.42931   1.44898   1.50709   1.52539
 Alpha virt. eigenvalues --    1.53101   1.53111   1.55687   1.56050   1.57132
 Alpha virt. eigenvalues --    1.57716   1.58525   1.60884   1.61892   1.63495
 Alpha virt. eigenvalues --    1.63590   1.64641   1.65730   1.66829   1.68546
 Alpha virt. eigenvalues --    1.69622   1.69762   1.70511   1.71577   1.74814
 Alpha virt. eigenvalues --    1.75836   1.76472   1.76789   1.77152   1.77901
 Alpha virt. eigenvalues --    1.78857   1.79478   1.80469   1.80566   1.80650
 Alpha virt. eigenvalues --    1.81294   1.82377   1.83324   1.87137   1.88129
 Alpha virt. eigenvalues --    1.89296   1.89535   1.89655   1.90310   1.93789
 Alpha virt. eigenvalues --    1.93922   1.95156   1.96219   1.98341   1.99722
 Alpha virt. eigenvalues --    2.00771   2.02017   2.02814   2.04022   2.04304
 Alpha virt. eigenvalues --    2.04594   2.04879   2.06349   2.08483   2.09476
 Alpha virt. eigenvalues --    2.09677   2.13386   2.14499   2.15132   2.16323
 Alpha virt. eigenvalues --    2.18686   2.18790   2.19654   2.21666   2.23279
 Alpha virt. eigenvalues --    2.24285   2.28077   2.28562   2.30100   2.30378
 Alpha virt. eigenvalues --    2.31481   2.31756   2.33226   2.35876   2.37474
 Alpha virt. eigenvalues --    2.39766   2.42634   2.42817   2.43668   2.44321
 Alpha virt. eigenvalues --    2.45395   2.46323   2.48104   2.54470   2.55954
 Alpha virt. eigenvalues --    2.56773   2.58946   2.61306   2.61994   2.64743
 Alpha virt. eigenvalues --    2.65865   2.70632   2.72122   2.72314   2.73131
 Alpha virt. eigenvalues --    2.75113   2.76213   2.76717   2.76821   2.77193
 Alpha virt. eigenvalues --    2.79300   2.79917   2.81481   2.83311   2.86286
 Alpha virt. eigenvalues --    2.87086   2.93725   2.94427   2.94619   2.96958
 Alpha virt. eigenvalues --    2.97403   2.97705   2.99241   3.00052   3.04165
 Alpha virt. eigenvalues --    3.16717   3.23085   3.23728   3.32370   3.38133
 Alpha virt. eigenvalues --    3.40878   3.46407   3.56680   3.63452  51.30469
 Alpha virt. eigenvalues --  282.79617
  Beta  occ. eigenvalues -- -101.28258 -14.33614 -14.33613 -14.32751 -14.32749
  Beta  occ. eigenvalues --  -10.18789 -10.18789 -10.18359 -10.18355 -10.17289
  Beta  occ. eigenvalues --  -10.17287 -10.17234 -10.17233 -10.16427 -10.16420
  Beta  occ. eigenvalues --  -10.14761 -10.14426 -10.14425 -10.13426  -9.30555
  Beta  occ. eigenvalues --   -7.05717  -7.05329  -7.05297  -3.89261  -2.15697
  Beta  occ. eigenvalues --   -2.15355  -2.12195  -1.01400  -1.01294  -0.91750
  Beta  occ. eigenvalues --   -0.91270  -0.82357  -0.77421  -0.76296  -0.72796
  Beta  occ. eigenvalues --   -0.71210  -0.70898  -0.69542  -0.69263  -0.64306
  Beta  occ. eigenvalues --   -0.61392  -0.60668  -0.57936  -0.55809  -0.54801
  Beta  occ. eigenvalues --   -0.54633  -0.50313  -0.47932  -0.46644  -0.46623
  Beta  occ. eigenvalues --   -0.46362  -0.46248  -0.44514  -0.44167  -0.43573
  Beta  occ. eigenvalues --   -0.42409  -0.41789  -0.41028  -0.40635  -0.40633
  Beta  occ. eigenvalues --   -0.39578  -0.38295  -0.37828  -0.36185  -0.35800
  Beta  occ. eigenvalues --   -0.35404  -0.32132  -0.30961  -0.29131  -0.28593
  Beta  occ. eigenvalues --   -0.28501  -0.28039  -0.26977  -0.25341  -0.23953
  Beta  occ. eigenvalues --   -0.22807  -0.22727  -0.21913  -0.20909
  Beta virt. eigenvalues --   -0.15971  -0.05517  -0.03844   0.00694   0.00864
  Beta virt. eigenvalues --    0.01309   0.01550   0.05243   0.06324   0.06809
  Beta virt. eigenvalues --    0.07192   0.07525   0.08297   0.08429   0.09992
  Beta virt. eigenvalues --    0.10338   0.10492   0.11897   0.12060   0.13706
  Beta virt. eigenvalues --    0.14526   0.14570   0.14890   0.15058   0.15437
  Beta virt. eigenvalues --    0.15748   0.16155   0.17198   0.17612   0.18963
  Beta virt. eigenvalues --    0.19825   0.19961   0.22549   0.23765   0.25099
  Beta virt. eigenvalues --    0.25686   0.26823   0.28232   0.29065   0.30396
  Beta virt. eigenvalues --    0.31687   0.32753   0.33611   0.35413   0.36008
  Beta virt. eigenvalues --    0.36657   0.37599   0.38006   0.38657   0.39746
  Beta virt. eigenvalues --    0.40322   0.41578   0.42269   0.43210   0.44100
  Beta virt. eigenvalues --    0.44645   0.44962   0.46042   0.46400   0.46637
  Beta virt. eigenvalues --    0.46752   0.48527   0.49319   0.49454   0.50046
  Beta virt. eigenvalues --    0.50587   0.51042   0.52513   0.53867   0.53961
  Beta virt. eigenvalues --    0.55085   0.55147   0.55883   0.57897   0.58570
  Beta virt. eigenvalues --    0.60000   0.61219   0.61487   0.62809   0.63270
  Beta virt. eigenvalues --    0.63278   0.63998   0.65095   0.65220   0.65414
  Beta virt. eigenvalues --    0.65465   0.65687   0.66133   0.66844   0.67204
  Beta virt. eigenvalues --    0.67787   0.68342   0.68944   0.69061   0.69534
  Beta virt. eigenvalues --    0.70296   0.70831   0.72149   0.72812   0.73886
  Beta virt. eigenvalues --    0.74381   0.74661   0.77382   0.77925   0.79042
  Beta virt. eigenvalues --    0.79261   0.81455   0.83081   0.83515   0.85113
  Beta virt. eigenvalues --    0.85522   0.85552   0.86664   0.88978   0.89631
  Beta virt. eigenvalues --    0.90310   0.90708   0.91275   0.91849   0.92511
  Beta virt. eigenvalues --    0.94927   0.96989   0.99766   1.00386   1.01944
  Beta virt. eigenvalues --    1.04329   1.04652   1.05067   1.07554   1.10003
  Beta virt. eigenvalues --    1.13002   1.15332   1.16252   1.16506   1.18579
  Beta virt. eigenvalues --    1.18936   1.19481   1.20592   1.20725   1.21579
  Beta virt. eigenvalues --    1.22055   1.22700   1.23702   1.24253   1.25292
  Beta virt. eigenvalues --    1.29713   1.31043   1.32776   1.34274   1.34314
  Beta virt. eigenvalues --    1.34738   1.34781   1.37143   1.37450   1.37601
  Beta virt. eigenvalues --    1.42331   1.42646   1.42874   1.43303   1.45259
  Beta virt. eigenvalues --    1.50920   1.52839   1.53142   1.53162   1.56203
  Beta virt. eigenvalues --    1.56609   1.57375   1.58024   1.59076   1.61375
  Beta virt. eigenvalues --    1.62940   1.63720   1.63879   1.65037   1.66614
  Beta virt. eigenvalues --    1.67447   1.68911   1.70453   1.70631   1.71130
  Beta virt. eigenvalues --    1.72467   1.75368   1.76612   1.76719   1.77436
  Beta virt. eigenvalues --    1.77873   1.78497   1.79531   1.79779   1.80660
  Beta virt. eigenvalues --    1.80929   1.80938   1.81446   1.82479   1.83685
  Beta virt. eigenvalues --    1.87427   1.88519   1.89657   1.90068   1.90140
  Beta virt. eigenvalues --    1.91054   1.94301   1.94771   1.96030   1.96533
  Beta virt. eigenvalues --    1.99466   1.99916   2.01531   2.02361   2.03304
  Beta virt. eigenvalues --    2.04378   2.04513   2.04830   2.05197   2.06846
  Beta virt. eigenvalues --    2.09859   2.10228   2.10455   2.14738   2.15469
  Beta virt. eigenvalues --    2.15809   2.17025   2.19231   2.19893   2.20817
  Beta virt. eigenvalues --    2.22151   2.24459   2.25446   2.28694   2.28748
  Beta virt. eigenvalues --    2.30561   2.30679   2.31852   2.32057   2.33598
  Beta virt. eigenvalues --    2.36223   2.38241   2.40134   2.43340   2.43778
  Beta virt. eigenvalues --    2.44339   2.44606   2.45636   2.47199   2.48630
  Beta virt. eigenvalues --    2.55692   2.56455   2.58273   2.59872   2.61589
  Beta virt. eigenvalues --    2.62219   2.65529   2.66563   2.71153   2.72577
  Beta virt. eigenvalues --    2.72778   2.73393   2.75691   2.77012   2.77598
  Beta virt. eigenvalues --    2.77645   2.77848   2.79610   2.80363   2.81854
  Beta virt. eigenvalues --    2.83508   2.86840   2.87556   2.94509   2.94693
  Beta virt. eigenvalues --    2.94737   2.97079   2.97628   2.97851   2.99585
  Beta virt. eigenvalues --    3.00441   3.04683   3.17054   3.23442   3.24218
  Beta virt. eigenvalues --    3.32775   3.38524   3.41292   3.46963   3.57006
  Beta virt. eigenvalues --    3.64208  51.30851 282.79869
          Condensed to atoms (all electrons):
               1          2          3          4          5          6
     1  Pt  17.136350   0.237263  -0.066835  -0.066903   0.000769   0.000776
     2  C    0.237263   6.107025   0.164218   0.164374   0.017180   0.017206
     3  C   -0.066835   0.164218   5.057956   0.070541   0.350285  -0.114632
     4  C   -0.066903   0.164374   0.070541   5.057901  -0.114626   0.350203
     5  C    0.000769   0.017180   0.350285  -0.114626   5.170944   0.061364
     6  C    0.000776   0.017206  -0.114632   0.350203   0.061364   5.170844
     7  C    0.004694  -0.135141   0.118094   0.118092   0.210558   0.210665
     8  H   -0.000917   0.015862  -0.072644  -0.002321   0.458091   0.012676
     9  H   -0.000917   0.015866  -0.002322  -0.072660   0.012683   0.458135
    10  H   -0.000229   0.000074   0.011523   0.011527  -0.054506  -0.054504
    11  C    0.207231   0.009640   0.004581  -0.088922  -0.000020   0.004589
    12  C    0.003695  -0.000438   0.000003   0.008539   0.000002   0.000363
    13  H   -0.000482   0.000002  -0.000000  -0.000067  -0.000000  -0.000006
    14  C    0.207105   0.009524  -0.088873   0.004575   0.004587  -0.000020
    15  C    0.003696  -0.000439   0.008545   0.000003   0.000365   0.000002
    16  H   -0.000482   0.000002  -0.000067  -0.000000  -0.000006  -0.000000
    17  Cl   0.195403  -0.009832   0.000034   0.000033   0.000001   0.000001
    18  C   -0.001812  -0.000431  -0.000004   0.000146   0.000000   0.000006
    19  H    0.000463   0.000006  -0.000000   0.000004   0.000000  -0.000000
    20  H   -0.001359   0.000472   0.000015  -0.000219  -0.000000  -0.000001
    21  H    0.000572   0.000005  -0.000000   0.000003   0.000000  -0.000000
    22  C   -0.001837  -0.000429   0.000146  -0.000004   0.000006   0.000000
    23  H   -0.001278   0.000469  -0.000219   0.000015  -0.000001  -0.000000
    24  H    0.000497   0.000006   0.000004  -0.000000  -0.000000   0.000000
    25  H    0.000536   0.000005   0.000004  -0.000000  -0.000000   0.000000
    26  N   -0.036702  -0.110189   0.007358   0.395018  -0.000305  -0.062809
    27  N   -0.017411   0.001851  -0.000001   0.005227   0.000001  -0.000170
    28  N   -0.017394   0.001856   0.005224  -0.000001  -0.000170   0.000001
    29  N   -0.036698  -0.110216   0.395012   0.007356  -0.062818  -0.000304
    30  C    0.005368   0.013215  -0.058447  -0.000000  -0.005892   0.000008
    31  C    0.005367   0.013206  -0.000000  -0.058428   0.000008  -0.005886
    32  H   -0.000674   0.000008  -0.007422  -0.000005   0.003001   0.000002
    33  H   -0.000674   0.000007  -0.000005  -0.007410   0.000002   0.002995
               7          8          9         10         11         12
     1  Pt   0.004694  -0.000917  -0.000917  -0.000229   0.207231   0.003695
     2  C   -0.135141   0.015862   0.015866   0.000074   0.009640  -0.000438
     3  C    0.118094  -0.072644  -0.002322   0.011523   0.004581   0.000003
     4  C    0.118092  -0.002321  -0.072660   0.011527  -0.088922   0.008539
     5  C    0.210558   0.458091   0.012683  -0.054506  -0.000020   0.000002
     6  C    0.210665   0.012676   0.458135  -0.054504   0.004589   0.000363
     7  C    5.202847  -0.068173  -0.068202   0.429392   0.000159  -0.000014
     8  H   -0.068173   0.659613  -0.000124  -0.009958   0.000002   0.000000
     9  H   -0.068202  -0.000124   0.659622  -0.009966  -0.000352   0.000029
[...]
 0.01127361,0.00004154,-0.01292378,0.00360611,-0.00021101,0.61902399,-0
 .00973260,0.01022355,-0.00006493,0.00490274,0.00307968,0.00002623,-0.0
 0078382,-0.02021325,-0.00018219,-0.01065242,-0.00202469,-0.00016468,0.
 00651860,0.01243417,0.00021527,0.00178577,-0.00050334,0.00003312,-0.01
 030170,-0.00549225,-0.00022660,0.00020736,0.00042929,0.00000916,-0.000
 18715,-0.00002481,-0.00000332,-0.00038396,-0.00015199,-0.00000403,0.00
 783095,-0.00251441,0.00012177,0.00150222,0.00128774,0.00003560,0.00006
 493,0.00016274,0.00000371,-0.05780301,-0.15483172,-0.00186072,0.083042
 33,-0.18621527,-0.00009795,-0.00797705,0.01000701,0.00000748,0.0002188
 5,0.00065076,0.00001294,-0.00017937,-0.00061083,-0.00000307,-0.0000137
 4,0.00021171,-0.00005918,-0.00005712,0.00007331,-0.00000105,-0.0000143
 1,0.00021601,0.00006992,-0.01955499,-0.22307894,-0.00190193,-0.0062093
 6,-0.02426408,-0.00033900,-0.00389990,-0.02361945,0.00100529,-0.003856
 32,-0.02318179,-0.00175086,0.00385132,-0.00565592,-0.00000005,-0.00334
 042,0.00336268,-0.00004038,0.04469872,0.76675837,-0.00030655,-0.000083
 58,0.00352937,0.00030346,0.00009659,-0.00207109,-0.00023649,-0.0004232
 4,0.00248905,-0.00032462,-0.00002480,0.00077891,0.00022669,0.00028005,
 0.00073297,0.00013544,-0.00008798,0.00022265,-0.00034534,-0.00010841,-
 0.00020057,0.00000750,0.00000520,-0.00033011,-0.00000486,-0.00000346,-
 0.00006896,-0.00000752,-0.00000262,-0.00003205,0.00006987,0.00001740,0
 .00195497,0.00004348,0.00007563,-0.00013077,-0.00000218,0.00000114,-0.
 00006414,-0.00381285,-0.00236048,-0.05135045,-0.00117518,-0.00043795,-
 0.05644891,-0.00025827,0.00048349,-0.00198525,0.00002728,0.00001033,-0
 .00079512,-0.00000201,-0.00002970,0.00006960,0.00001732,0.00001055,-0.
 00000261,-0.00000205,0.00000047,0.00001360,-0.00001993,0.00000770,0.00
 000228,-0.00085733,-0.00190055,-0.06253133,0.00014419,0.00041545,-0.00
 136692,0.00179910,0.02645844,0.00717390,-0.00221959,-0.02790781,0.0066
 5809,0.00014249,-0.00015240,-0.00064787,-0.00016375,0.00006086,-0.0006
 9121,0.00747528,0.00702395,0.13115274,-0.00285906,0.01703046,-0.000088
 85,-0.09417729,-0.01899485,-0.00170249,-0.19106580,-0.05161827,-0.0028
 3118,0.02657849,-0.00299715,0.00034017,-0.02985689,-0.05211398,-0.0010
 7522,-0.02082933,0.01696051,-0.00021684,0.04963304,0.01373850,0.000835
 81,-0.00027352,0.00006091,0.00007414,-0.00000766,0.00013305,0.00000737
 ,0.00103028,0.00004960,0.00000921,-0.00762601,-0.00635472,-0.00024872,
 -0.00401792,-0.00388964,-0.00010002,0.00008734,-0.00000540,-0.00000246
 ,-0.13627451,0.06303643,-0.00041901,-0.07632198,-0.05541468,-0.0018566
 0,0.00122619,-0.00331980,-0.00010446,-0.00038756,0.00153295,0.00004198
 ,0.00013844,0.00127141,0.00000132,-0.00002261,-0.00043078,0.00009644,0
 .00029385,-0.00003917,0.00000574,-0.00002298,-0.00043964,-0.00011742,-
 0.00396100,-0.00240963,-0.00014109,-0.00022976,0.00016553,-0.00000129,
 0.00008515,0.00021592,-0.00061750,0.00005338,0.00020598,0.00063396,-0.
 01584245,0.01468904,-0.00005901,0.01005654,-0.00410650,0.00017832,-0.0
 0403592,-0.01874305,-0.00033025,0.76200576,0.02595526,-0.01545814,-0.0
 0004861,-0.02877147,0.00601465,-0.00017420,-0.04554071,-0.13618946,-0.
 00167522,0.03836078,-0.00969131,0.00043165,-0.08534066,-0.08632834,-0.
 00229015,-0.01927856,0.01972787,-0.00019235,0.06744098,0.01211579,0.00
 118952,-0.00036054,0.00178604,0.00004359,-0.00017515,0.00054731,0.0000
 1873,-0.00108949,-0.00078160,-0.00003481,-0.01154782,-0.00523585,-0.00
 029416,-0.00448163,-0.00353969,-0.00010514,0.00016284,-0.00006775,-0.0
 0000210,-0.01305087,-0.18119021,-0.00125680,-0.02916719,-0.00733838,-0
 .00061208,0.00025177,-0.00553418,-0.00010404,0.00008579,-0.00012208,0.
 00008087,0.00025151,0.00168316,0.00000537,0.00001509,-0.00056567,0.000
 14642,0.00020259,-0.00005740,0.00000504,0.00001665,-0.00057612,-0.0001
 7278,-0.00512530,-0.00067433,-0.00014781,-0.00018663,0.00050989,0.0000
 0361,0.00010840,-0.00104070,-0.00049684,0.00008074,-0.00106022,0.00049
 201,-0.01403358,0.02455693,0.00006381,0.01101959,-0.00577249,0.0001839
 9,-0.02630148,-0.05483592,-0.00103321,0.06662889,0.57506114,0.00008931
 ,0.00010723,0.00692498,-0.00200073,-0.00040676,0.00493080,-0.00266910,
 -0.00162353,-0.04741796,0.00090630,-0.00015824,0.00108883,-0.00144849,
 -0.00181571,0.00525781,-0.00057082,0.00051753,-0.00028837,0.00147386,0
 .00029991,0.00667230,0.00006763,0.00004934,-0.00447381,0.00000697,0.00
 001296,-0.00059873,-0.00000093,-0.00001327,0.00057613,-0.00031145,-0.0
 0018867,0.00149976,-0.00012323,-0.00010853,-0.00004883,0.00000288,-0.0
 0000073,-0.00000858,-0.00123003,-0.00028953,-0.06489763,-0.00160460,-0
 .00096363,0.01353524,-0.00006130,-0.00016148,0.00573231,0.00000798,0.0
 0002255,-0.00039794,0.00000307,0.00003969,0.00010592,-0.00001053,-0.00
 002884,0.00000225,0.00000796,-0.00000170,-0.00000218,0.00001012,0.0000
 0082,-0.00000458,-0.00020657,-0.00009135,0.00568307,0.00000189,0.00000
 915,-0.00015200,-0.00052934,-0.00078834,-0.00031573,0.00054838,0.00078
 287,-0.00025682,-0.00043060,0.00055920,-0.00103174,0.00031509,-0.00013
 581,-0.00064312,-0.00029029,-0.00083853,0.00292834,0.01039080,0.005617
 18,0.11841360,-0.00150634,0.00078584,0.00002574,0.00988258,0.00156751,
 0.00009440,-0.04331581,-0.02212555,-0.00080081,-0.00745291,0.00008847,
 -0.00011598,0.01467474,0.01833227,0.00042063,0.00312964,-0.00227673,0.
 00004896,-0.01385869,-0.00518641,-0.00028412,0.00030061,0.00012659,0.0
 0001263,0.00004661,-0.00009002,-0.00000156,0.00017667,0.00025083,0.000
 00541,-0.00002999,0.00118409,0.00000568,0.00032752,0.00002364,0.000005
 22,-0.00002435,-0.00001686,0.00000023,-0.01724195,0.05042471,0.0001098
 3,-0.15422598,-0.14094852,-0.00269504,-0.00019140,-0.02138049,-0.00023
 586,-0.00010097,0.00003145,-0.00000627,0.00001633,-0.00022414,-0.00000
 159,-0.00001925,0.00005314,-0.00001710,-0.00000156,-0.00000339,-0.0000
 0011,-0.00001924,0.00005415,0.00001977,-0.00734904,0.00307823,-0.00012
 054,0.00053039,0.00157378,0.00002387,0.00001262,-0.00141155,0.00010964
 ,0.00001500,-0.00142168,-0.00013473,0.00269468,-0.00346393,-0.00000081
 ,-0.00097717,0.00041173,-0.00001693,-0.00150699,0.00411184,-0.00017254
 ,-0.25751728,0.04017559,-0.00265786,0.58127570,0.00007748,-0.00285381,
 -0.00004970,-0.00811645,-0.00446922,-0.00018529,-0.01690218,0.02001674
 ,0.00003177,0.00325369,-0.00059978,0.00003636,-0.00419341,-0.00403647,
 -0.00019152,-0.00348087,0.00366514,-0.00002572,0.00761234,0.00080252,0
 .00013017,0.00012994,-0.00056358,-0.00003191,0.00002229,0.00003150,-0.
 00000008,0.00007646,-0.00002938,0.00000025,-0.00079983,-0.00052661,-0.
 00001808,-0.00077486,-0.00099725,-0.00002284,0.00004285,0.00003045,-0.
 00000001,0.01761190,-0.02619811,-0.00008810,-0.14168759,-0.39313254,-0
 .00533144,0.00279759,0.00605751,0.00008539,0.00034896,0.00062148,0.000
 02036,0.00005238,0.00023024,0.00000084,-0.00000208,-0.00008801,0.00001
 572,0.00001749,-0.00000930,0.00000104,-0.00000229,-0.00008929,-0.00001
 915,0.00444094,0.00412138,0.00008114,-0.00077150,-0.00127195,-0.000033
 64,-0.00071186,-0.00096701,0.00055177,-0.00070212,-0.00097724,-0.00059
 163,-0.00224951,0.00229308,-0.00001195,0.00205021,-0.00035696,0.000037
 22,0.04653277,-0.07876486,-0.00024630,0.02478431,-0.13359328,-0.000530
 25,-0.03974498,0.93126324,-0.00003264,-0.00001487,0.00064171,0.0000840
 9,-0.00005585,0.00113166,-0.00089870,-0.00012013,-0.00322332,-0.000136
 40,0.00000481,0.00103085,0.00023100,0.00020470,-0.00038915,0.00004437,
 -0.00001785,-0.00017015,-0.00018634,-0.00008041,0.00006669,0.00000122,
 -0.00003691,-0.00034358,0.00000199,-0.00000082,-0.00007134,0.00000117,
 0.00000288,0.00006442,0.00000315,0.00001396,-0.00017723,0.00000165,-0.
 00000475,-0.00001735,0.00000009,0.00000027,-0.00000449,-0.00018012,0.0
 0035022,0.01015471,-0.00270309,-0.00535441,-0.05970404,0.00000501,-0.0
 0025664,0.00134330,0.00000370,0.00000102,-0.00000271,0.00000027,-0.000
 00325,0.00000711,-0.00000135,-0.00000069,0.00000301,-0.00000035,-0.000
 00001,-0.00000701,0.00000079,0.00000177,0.00000351,-0.00007223,0.00007
 601,0.00137066,-0.00000726,0.00000345,0.00032387,-0.00007508,-0.000237
 64,-0.00005054,0.00005859,0.00018450,-0.00006156,0.00002730,-0.0000500
 9,0.00014368,-0.00000574,0.00000892,-0.00001401,0.00017100,-0.00086647
 ,0.01525171,-0.00267650,-0.00023190,-0.05000249,0.00642416,0.00778993,
 0.10572777,-0.00151644,-0.00080563,-0.00010437,0.00996544,-0.00181233,
 0.00020166,-0.00749382,0.00003743,-0.00016276,-0.04263154,0.02315616,-
 0.00037586,0.00320873,0.00226600,0.00005947,0.01443361,-0.01863437,0.0
 0008258,-0.01387204,0.00543433,-0.00016704,0.00004713,0.00008964,0.000
 00475,0.00031904,-0.00012297,0.00001113,0.00017137,-0.00025444,-0.0000
 0097,-0.01834710,-0.05052946,-0.00093920,-0.14970714,0.13691575,0.0001
 5733,0.00011679,0.02146823,0.00022275,-0.00003645,-0.00119137,-0.00001
 817,0.00033799,-0.00004182,0.00000631,-0.00002473,0.00001784,-0.000000
 68,-0.00011068,-0.00002109,0.00000565,-0.00746796,-0.00289084,-0.00010
 115,0.00005094,0.00139576,-0.00009114,0.00051888,-0.00160259,-0.000028
 43,0.00004606,0.00140529,0.00013589,0.00001923,0.00022727,0.00000186,-
 0.00000122,0.00000340,0.00000003,-0.00002050,-0.00005455,0.00001731,-0
 .00001971,-0.00005458,-0.00002016,-0.25832792,-0.03807226,-0.00361381,
 -0.00234567,-0.00540557,-0.00044768,-0.00101253,-0.00040039,-0.0000085
 9,0.00278205,0.00345045,0.00008687,-0.00117295,0.00023143,-0.00001954,
 0.58247093,-0.00009709,-0.00283936,-0.00004809,0.00788276,-0.00457761,
 0.00007020,-0.00314689,-0.00054447,-0.00006642,0.01794399,0.01936023,0
 .00049637,0.00348928,0.00356937,0.00008649,0.00386300,-0.00393066,0.00
 003889,-0.00737357,0.00083779,-0.00011272,-0.00002249,0.00003010,-0.00
 000127,-0.00013387,-0.00055992,0.00000873,-0.00007988,-0.00002372,-0.0
 0000179,-0.01775216,-0.02505036,-0.00066520,0.13763378,-0.39779961,-0.
 00168313,-0.00270066,0.00574014,0.00001591,0.00079577,-0.00052194,0.00
 000310,0.00075357,-0.00100940,0.00000093,-0.00004211,0.00003092,-0.000
 00051,-0.00033643,0.00062593,0.00000824,-0.00425147,0.00424693,-0.0000
 4089,0.00067764,-0.00099159,0.00056731,0.00074664,-0.00125654,-0.00002
 070,0.00070521,-0.00102242,-0.00058157,-0.00004887,0.00022846,0.000000
 43,-0.00001705,-0.00000930,0.00000022,0.00000055,-0.00008798,0.0000160
 9,0.00000148,-0.00008815,-0.00001846,-0.02263516,-0.13246974,-0.001225
 43,-0.04778089,-0.07788317,-0.00170580,-0.00204360,-0.00031844,-0.0000
 2720,0.00224394,0.00220401,0.00006546,-0.00020120,0.00076653,0.0000016
 0,0.04547228,0.92965185,-0.00003518,-0.00003449,0.00063994,0.00020386,
 -0.00009292,0.00113482,-0.00015195,-0.00001890,0.00102918,-0.00040510,
 0.00058054,-0.00320409,0.00008935,0.00008196,-0.00016858,0.00028697,-0
 .00029691,-0.00045283,-0.00028940,0.00008356,0.00006446,0.00000223,0.0
 0000242,-0.00007112,0.00000881,-0.00000262,-0.00034792,0.00000090,-0.0
 0000485,0.00006432,-0.00063423,-0.00116351,0.01013126,0.00015045,-0.00
 169157,-0.05966173,-0.00004711,0.00037314,0.00135063,0.00001165,-0.000
 02907,-0.00017779,0.00001411,-0.00001010,-0.00001715,-0.00000082,0.000
 00074,-0.00000444,-0.00000680,0.00000411,-0.00000318,-0.00020509,-0.00
 000843,0.00136980,0.00007813,-0.00019396,-0.00005103,0.00001617,-0.000
 04923,0.00032340,-0.00004689,0.00023115,-0.00005842,-0.00000049,0.0000
 0459,0.00000727,0.00000036,-0.00000004,-0.00000705,0.00000073,-0.00000
 275,0.00000363,-0.00000132,-0.00000029,0.00000276,-0.00345827,-0.00147
 066,-0.05000459,-0.00078541,-0.00111400,0.01523796,-0.00003434,-0.0000
 0806,-0.00001457,0.00006415,0.00007582,0.00014606,-0.00002035,0.000010
 95,0.00007597,0.00781389,0.00991830,0.10582349,0.00026273,0.00081354,0
 .00000406,-0.00025406,0.00021955,0.00000336,0.00204158,0.00079487,0.00
 005497,0.00008236,-0.00012181,-0.00000099,-0.00043319,0.00006393,-0.00
 005801,-0.00010067,0.00021626,0.00000143,0.00029895,-0.00036589,-0.000
 00035,-0.00071344,-0.00036682,-0.00007967,0.00002164,-0.00002296,0.000
 00046,0.00001153,0.00001072,-0.00000046,-0.00013238,-0.00016964,-0.000
 00662,-0.00005061,-0.00001796,-0.00000082,-0.00000390,-0.00000462,-0.0
 0000011,-0.00538529,-0.00244690,-0.00015416,0.01285547,-0.01038810,0.0
 0006503,-0.00008265,0.00077156,0.00005383,0.00004787,0.00005988,0.0000
 0172,0.00000616,-0.00000950,-0.00000032,-0.00000281,0.00000087,-0.0000
 0007,0.00000410,-0.00000202,0.00000008,-0.00000280,0.00000078,0.,0.001
 25362,0.00005618,0.00000110,-0.00013410,-0.00037185,-0.00000596,-0.000
 03453,0.00001526,0.00002700,-0.00002956,0.00000787,-0.00002711,-0.0001
 2550,0.00010044,0.00000062,0.00003263,-0.00007699,0.00000078,-0.001136
 13,-0.00472746,-0.00014401,-0.00851344,0.03034857,0.00022906,-0.106557
 15,0.11004580,-0.00006399,-0.00001412,-0.00001136,-0.00000022,0.106797
 63,-0.00006699,0.00012954,-0.00000625,0.00023382,0.00006435,0.00000595
 ,-0.00028885,-0.00071181,-0.00000329,-0.00018624,0.00003106,-0.0000027
 8,0.00001256,0.00050092,-0.00001717,0.00012765,-0.00011893,0.00000162,
 -0.00035778,-0.00011527,-0.00000662,-0.00017869,-0.00016627,-0.0000802
 2,0.00000656,-0.00000611,0.00000007,0.00001010,0.00001325,-0.00000034,
 0.00000664,0.00000425,0.00000058,0.00003387,0.00001430,0.00000067,0.00
 000056,0.00000055,0.,-0.00137960,0.00058662,-0.00004653,0.01367972,-0.
 00701201,0.00011551,-0.00024383,0.00040773,0.00003423,0.00003716,-0.00
 001441,0.00000029,-0.00000080,0.00000413,0.00000004,0.00000222,0.00000
 053,0.00000040,-0.00000844,-0.00000028,-0.00000012,0.00000216,0.000000
 56,-0.00000032,0.00102909,0.00003176,0.00000397,-0.00020240,-0.0003170
 8,-0.00000689,-0.00001664,0.00002195,0.00000257,-0.00001286,0.00001650
 ,-0.00000223,0.00010722,-0.00011752,0.00000120,-0.00002749,0.00002215,
 -0.00000007,-0.00230165,-0.00261684,-0.00011832,-0.00176407,0.00556113
 ,0.00006336,0.11619588,-0.32035491,-0.00131164,-0.00002593,-0.00001959
 ,-0.00000060,-0.12442263,0.32415713,-0.00000884,0.00000928,0.00072764,
 -0.00000011,0.00000198,-0.00027006,0.00004205,0.00001720,-0.00075403,0
 .00000509,-0.00000320,0.00002940,-0.00005053,0.00000677,-0.00007419,-0
 .00000270,0.00000493,-0.00002384,0.00001004,-0.00000414,-0.00012144,-0
 .00007737,-0.00010265,0.00035093,0.00000034,-0.00000054,0.00000333,-0.
 00000062,-0.00000018,0.00006582,-0.00000562,-0.00000355,-0.00000106,-0
 .00000156,-0.00000134,-0.00000649,-0.00000013,-0.00000013,0.00000543,-
 0.00014059,-0.00006022,0.00323082,0.00030848,-0.00021275,0.00074492,0.
 00004360,0.00004800,-0.00331743,0.00000138,0.00000132,-0.00001453,0.00
 000008,0.00000022,0.00000625,-0.00000217,-0.00000063,-0.00000067,-0.00
 000002,-0.00000008,0.00000176,0.00000216,0.00000040,-0.00000069,0.0000
 1152,-0.00001489,0.00137090,-0.00000545,-0.00001179,-0.00003898,0.0001
 3805,-0.00021725,-0.00005046,-0.00013722,0.00022127,-0.00005143,-0.000
 00229,0.00000521,-0.00008640,0.00000403,-0.00000173,-0.00004537,-0.000
 11497,-0.00015173,0.00581926,-0.00009180,0.00051273,-0.00287043,-0.000
 02382,-0.00141573,-0.02310425,-0.00000027,0.00000032,0.00000253,0.0000
 9941,0.00137290,0.01847312,0.00025621,-0.00081987,-0.00001902,-0.00026
 779,-0.00020994,-0.00000262,0.00009084,0.00012129,0.00000282,0.0020362
 6,-0.00084939,0.00003463,-0.00010454,-0.00022223,-0.00000312,-0.000450
 31,-0.00006286,-0.00004382,0.00031981,0.00038230,0.00001048,0.00002488
 ,0.00002364,0.00000051,-0.00075836,0.00040697,-0.00005636,0.00001153,-
 0.00001199,-0.00000117,-0.00532331,0.00254626,-0.00010013,0.01280911,0
 .01005448,0.00029977,-0.00009107,-0.00076150,0.00004068,-0.00014264,0.
 00017171,0.00000130,-0.00004991,0.00002168,-0.00000038,-0.00000355,0.0
 0000473,-0.00000013,0.00004612,-0.00005403,0.00000020,0.00123969,-0.00
 008249,-0.00000926,-0.00003047,-0.00000716,-0.00002670,-0.00012593,0.0
 0036968,0.00000544,-0.00003579,-0.00001177,0.00002818,0.00000599,0.000
 00496,0.00000014,0.00000363,0.00000215,0.,-0.00000250,0.00000026,-0.00
 000042,-0.00000244,0.00000026,0.00000038,-0.00897400,-0.03007303,-0.00
 043746,-0.00100680,0.00472356,-0.00004909,0.00004695,0.00008249,0.0000
 0182,-0.00012753,-0.00010444,-0.00000228,-0.00001407,0.00001072,-0.000
 00023,-0.11036566,-0.11353513,-0.00261875,-0.00000996,-0.00000032,-0.0
 0000016,0.11099560,0.00006617,0.00014112,-0.00000460,-0.00022847,0.000
 07309,-0.00000157,0.00018527,0.00002594,0.00000318,0.00024430,-0.00070
 278,0.00000573,-0.00012671,-0.00011408,-0.00000246,0.00002145,0.000483
 13,0.00001664,0.00035134,-0.00012122,0.00000531,-0.00000616,-0.0000061
 0,-0.00000003,0.00022015,-0.00014392,0.00001964,-0.00000986,0.00001321
 ,-0.00000068,0.00148160,0.00051814,-0.00000966,-0.01402168,-0.00696625
 ,-0.00030457,0.00025181,0.00041829,0.00004601,-0.00000748,0.00000137,0
 .00000050,-0.00003241,0.00001495,-0.00000027,-0.00000042,0.00000048,-0
 .00000005,-0.00003866,-0.00001096,-0.00000048,-0.00104897,0.00004779,-
 0.00002229,0.00001748,0.00002269,0.00000327,0.00020003,-0.00032625,-0.
 00000315,0.00001322,0.00001633,-0.00000218,0.00000067,0.00000285,-0.00
 000002,0.00000821,-0.00000046,0.00000020,-0.00000206,0.00000084,0.0000
 0024,-0.00000200,0.00000084,-0.00000028,0.00200596,0.00605030,0.000129
 52,0.00227923,-0.00273267,-0.00006974,0.00003006,0.00002178,0.00000079
 ,-0.00010614,-0.00011478,-0.00000236,0.00002568,-0.00002025,0.00000028
 ,-0.11965108,-0.31628830,-0.00517432,0.00000042,0.00000259,0.00000002,
 0.12787901,0.31969228,-0.00000899,-0.00001394,0.00072782,0.00000149,-0
 .00000473,-0.00027099,-0.00000405,0.00000184,0.00002950,0.00004462,-0.
 00000215,-0.00075447,-0.00000028,-0.00000309,-0.00002415,-0.00003472,-
 0.00001886,-0.00005080,0.00000465,0.00000858,-0.00011930,0.00000020,0.
 00000021,0.00000302,-0.00006384,0.00003844,0.00037176,-0.00000111,-0.0
 0000068,0.00006583,-0.00009839,-0.00000261,0.00323234,0.00003695,0.000
 08381,0.00074946,0.00005043,0.00003135,-0.00331793,0.00000231,0.000001
 92,-0.00000048,0.00000023,-0.00000092,-0.00000647,-0.00000012,-0.00000
 002,0.00000539,0.00000024,-0.00000059,-0.00001467,-0.00001160,-0.00002
 224,0.00137000,-0.00014110,-0.00021410,-0.00005556,0.00000326,-0.00000
 265,-0.00003911,0.00014106,0.00021958,-0.00004631,-0.00000001,0.000000
 56,0.00000611,-0.00000004,-0.00000007,0.00000183,0.00000210,-0.0000007
 0,-0.00000061,-0.00000219,0.00000043,-0.00000071,-0.00005053,-0.000353
 70,-0.00289000,-0.00010730,-0.00001628,0.00582009,-0.00000153,0.000000
 29,-0.00004553,0.00000131,0.00000187,-0.00008647,-0.00000012,0.0000004
 6,0.00000257,-0.00270769,-0.00509942,-0.02316295,-0.00000002,0.,-0.000
 00036,0.00294476,0.00536736,0.01850114\\0.00000116,0.00000208,-0.00000
 021,-0.00000343,-0.00000088,0.00000075,-0.00000303,0.00000103,0.000002
 30,0.00000690,0.00000178,-0.00000089,0.00000696,-0.00000647,0.00000160
 ,-0.00000585,-0.00001095,0.00000026,0.00000429,0.00000846,0.00000270,-
 0.00000070,0.00000380,0.00000327,0.00000829,0.00000219,0.00000014,0.00
 000345,-0.00000488,0.00000189,0.00000223,-0.00000233,-0.00000210,-0.00
 000917,-0.00000489,-0.00000342,0.00000215,-0.00000415,-0.00000414,-0.0
 0000478,-0.00000251,0.00000043,-0.00000063,0.00001064,0.00000350,0.000
 00040,0.00000390,0.00000351,-0.00000297,-0.00000018,-0.00000171,-0.000
 00073,-0.00000034,-0.00000702,-0.00000083,-0.00000377,-0.00000382,-0.0
 0000428,-0.00000373,-0.00000338,-0.00000396,-0.00000255,-0.00000193,-0
 .00000458,-0.00000086,-0.00000256,-0.00000265,0.00000258,0.00000091,-0
 .00000186,0.00000194,0.00000225,-0.00000141,0.00000459,0.00000457,-0.0
 0000176,0.00000090,-0.00000070,0.00000321,0.00000202,-0.00000219,0.000
 00470,0.00000515,0.00000166,0.00000937,0.00000900,0.00000225,-0.000005
 22,-0.00000813,0.00000322,0.00000099,-0.00000991,-0.00000326,0.0000011
 8,0.00000637,0.00000389,0.00000255,0.00000010,-0.00000175\\\@


 THE MOST INCOMPREHENSIBLE THING ABOUT THE WORLD
 IS THAT IT IS COMPREHENSIBLE. -- A. EINSTEIN
 Job cpu time:       0 days  8 hours 49 minutes 21.4 seconds.
 Elapsed time:       0 days  0 hours  9 minutes 32.2 seconds.
 File lengths (MBytes):  RWF=   1158 Int=      0 D2E=      0 Chk=     21 Scr=      1
 Normal termination of Gaussian 16 at Sun Feb  8 22:20:36 2026.
