
                                 *****************
                                 * O   R   C   A *
                                 *****************

                                            #,                                       
                                            ###                                      
                                            ####                                     
                                            #####                                    
                                            ######                                   
                                           ########,                                 
                                     ,,################,,,,,                         
                               ,,#################################,,                 
                          ,,##########################################,,             
                       ,#########################################, ''#####,          
                    ,#############################################,,   '####,        
                  ,##################################################,,,,####,       
                ,###########''''           ''''###############################       
              ,#####''   ,,,,##########,,,,          '''####'''          '####       
            ,##' ,,,,###########################,,,                        '##       
           ' ,,###''''                  '''############,,,                           
         ,,##''                                '''############,,,,        ,,,,,,###''
      ,#''                                            '''#######################'''  
     '                                                          ''''####''''         
             ,#######,   #######,   ,#######,      ##                                
            ,#'     '#,  ##    ##  ,#'     '#,    #''#        ,####,   ,####,        
            ##       ##  ##   ,#'  ##            #'  '#       #'       #'  '#        
            ##       ##  #######   ##           ,######,      #####,   #    #        
            '#,     ,#'  ##    ##  '#,     ,#' ,#      #,     #,   #   #,  ,#        
             '#######'   ##     ##  '#######'  #'      '#     '####' # '####'        



                #########################################################
                #                        -***-                          #
                #          Department of theory and spectroscopy        #
                #                                                       #
                #                      Frank Neese                      #
                #                                                       #
                #     Directorship, Architecture, Infrastructure        #
                #                    SHARK, DRIVERS                     #
                #        Core code/Algorithms in most modules           #
                #                                                       #
                #        Max Planck Institute fuer Kohlenforschung      #
                #                Kaiser Wilhelm Platz 1                 #
                #                 D-45470 Muelheim/Ruhr                 #
                #                      Germany                          #
                #                                                       #
                #                  All rights reserved                  #
                #                        -***-                          #
                #########################################################


                         Program Version 6.0.1  -  RELEASE   -


 With contributions from (in alphabetic order):
[Max-Planck-Institut fuer Kohlenforschung]                               
  Daniel Aravena         : Magnetic Suceptibility                        
  Michael Atanasov       : Ab Initio Ligand Field Theory (pilot matlab implementation)
  Alexander A. Auer      : GIAO ZORA, VPT2 properties, NMR spectrum      
  Ute Becker             : All parallelization in ORCA, NUMFREQ, NUMCALC 
  Giovanni Bistoni       : ED, misc. LED, open-shell LED, HFLD           
  Martin Brehm           : Molecular dynamics                            
  Dmytro Bykov           : pre 5.0 version of the SCF Hessian            
  Marcos Casanova-Páez   : Triplet and SCS-CIS(D). UHF-(DLPNO)-IP/EA/STEOM-CCSD. UHF-CVS-IP/STEOM-CCSD   
  Vijay G. Chilkuri      : MRCI spin determinant printing, contributions to CSF-ICE 
  Pauline Colinet        : FMM embedding                                 
  Dipayan Datta          : RHF DLPNO-CCSD density                        
  Achintya Kumar Dutta   : EOM-CC, STEOM-CC                              
  Nicolas Foglia         : Exact transition moments, OPA infrastructure, MCD improvements    
  Dmitry Ganyushin       : Spin-Orbit,Spin-Spin,Magnetic field MRCI      
  Miquel Garcia-Rates    : C-PCM and meta-GGA Hessian, CCSD/C-PCM, Gaussian charge scheme 
  Tiago L. C. Gouveia    : GS-ROHF, GS-ROCIS                             
  Yang Guo               : DLPNO-NEVPT2, F12-NEVPT2, CIM, IAO-localization        
  Andreas Hansen         : Spin unrestricted coupled pair/coupled cluster methods 
  Ingolf Harden          : AUTO-CI MPn and infrastructure                
  Benjamin Helmich-Paris : MC-RPA, TRAH-(SCF,CASSCF), AVAS, COSX integrals, SCF dyn. polar. 
  Lee Huntington         : MR-EOM, pCC                                   
  Robert Izsak           : Overlap fitted RIJCOSX, COSX-SCS-MP3, EOM     
  Riya Kayal             : Wick's Theorem for AUTO-CI, AUTO-CI UHF-CCSDT 
  Emily Kempfer          : AUTO-CI, RHF CISDT and CCSDT                  
  Christian Kollmar      : KDIIS, OOCD, Brueckner-CCSD(T), CCSD density, CASPT2, CASPT2-K, improved NEVPT2 
  Axel Koslowski         : Symmetry handling                             
  Simone Kossmann        : meta-GGA functionals, TD-DFT gradient, OOMP2, (MP2 Hessian; deprecated post 5.0) 
  Lucas Lang             : DCDCAS                                        
  Marvin Lechner         : AUTO-CI (C++ implementation), FIC-MRCC        
  Spencer Leger          : CASSCF response                               
  Dagmar Lenk            : GEPOL surface, SMD, ORCA-2-JSON               
  Dimitrios Liakos       : Extrapolation schemes; Compound Job, initial MDCI parallelization 
  Dimitrios Manganas     : Further ROCIS development; embedding schemes. LFT, Crystal Embedding 
  Dimitrios Pantazis     : SARC Basis sets                               
  Anastasios Papadopoulos: AUTO-CI, single reference methods and gradients 
  Taras Petrenko         : pre 6.0 DFT Hessian and TD-DFT gradient, (ASA, deprecated), ECA, 1-Electron XAS/XES, NRVS 
  Peter Pinski           : DLPNO-MP2, DLPNO-MP2 Gradient                 
  Christoph Reimann      : Effective Core Potentials                     
  Marius Retegan         : Local ZFS, SOC                                
  Christoph Riplinger    : Optimizer, TS searches, QM/MM, DLPNO-CCSD(T), (RO)-DLPNO pert. Triples 
  Michael Roemelt        : Original ROCIS implementation                 
  Masaaki Saitow         : Open-shell DLPNO-CCSD energy and density      
  Barbara Sandhoefer     : DKH picture change effects                    
  Kantharuban Sivalingam : CASSCF convergence/infrastructure, NEVPT2 and variants, FIC-MRCI 
  Bernardo de Souza      : ESD, SOC TD-DFT                               
  Georgi L. Stoychev     : AutoAux, RI-MP2 NMR, DLPNO-MP2 response, X2C  
  Van Anh Tran           : RI-MP2 g-tensors                              
  Willem Van den Heuvel  : Paramagnetic NMR                              
  Zikuan Wang            : NOTCH, Electric field optimization            
  Frank Wennmohs         : Technical directorship and infrastructure     
  Hang Xu                : AUTO-CI-Response properties                   
                                                                         
[FACCTs GmbH]                                                            
  Markus Bursch, Miquel Garcia-Rates, Christoph Riplinger, Bernardo de Souza, Georgi L. Stoychev 
                                                                 
  APM, Basis sets (HGBS, AHGBS, def-TZVP (Ac-Lr), def2-XVPD (La-Lu)), CI-OPT, improved COSX, DLPNO-Multilevel,           
  DOCKER, DRACO, updates on ESD, GOAT, IRC, LR-CPCM, MBIS, meta-GGA TD-DFT gradient, ML-optimized integration grids, 
  MM, NACMEs, nearIR, NEB, NEB-TS, NL-DFT gradient (VV10), 2- and 3-layer-ONIOM, interface openCOSMO-RS, QMMM,   
  Crystal-QMMM, SF, symmetry and pop. for TD-DFT, r2SCAN hybrids, SOLVATOR                                   
                                                                         
[Other institutions]                                                     
  V. Asgeirsson          : NEB                                           
  Christoph Bannwarth    : sTDA-DFT, sTD-DFT, PBEh-3c, B97-3c, D3        
  Sebastian Ehlert       : rSCAN, r2SCAN, r2SCAN-3c, D4, dhf basis sets  
  Marvin Friede          : D4 for Fr, Ra, Ac-Lr                          
  Lars Goerigk           : TD-DFT with DH, B97 family of functionals     
  Stefan Grimme          : VdW corrections, initial TS optimization, DFT functionals, gCP, sTDA/sTD-DF 
  Waldemar Hujo          : DFT-NL                                        
  H. Jonsson             : NEB                                           
  Holger Kruse           : gCP                                           
  Marcel Mueller         : wB97X-3c, vDZP basis set                      
  Hagen Neugebauer       : wr2SCAN                                       
  Tobias Risthaus        : range-separated hybrid DFT                    
  Lukas Wittmann         : regularized MP2, r2SCAN double-hybrids, wr2SCAN        
                                                                         
We gratefully acknowledge several colleagues who have allowed us to      
interface, adapt or use parts of their codes:                            
  Ed Valeev, F. Pavosevic, A. Kumar             : LibInt (2-el integral package), F12 methods 
  Garnet Chan, S. Sharma, J. Yang, R. Olivares  : DMRG                   
  Ulf Ekstrom                                   : XCFun DFT Library      
  Mihaly Kallay                                 : mrcc  (arbitrary order and MRCC methods)
  Frank Weinhold                                : gennbo (NPA and NBO analysis)           
  Simon Mueller                                 : openCOSMO-RS                            
  Christopher J. Cramer and Donald G. Truhlar   : smd solvation model                     
  S Lehtola, MJT Oliveira, MAL Marques          : LibXC Library                           
  Liviu Ungur et al                             : ANISO software                          


 Your calculation uses the libint2 library for the computation of 2-el integrals
 For citations please refer to: http://libint.valeyev.net

 Your ORCA version has been built with support for libXC version: 6.2.2
 For citations please refer to: https://libxc.gitlab.io

 This ORCA versions uses:
   CBLAS   interface :  Fast vector & matrix operations
   LAPACKE interface :  Fast linear algebra routines
   SCALAPACK package :  Parallel linear algebra routines
   Shared memory     :  Shared parallel matrices
   BLAS/LAPACK       :  OpenBLAS 0.3.27  USE64BITINT DYNAMIC_ARCH NO_AFFINITY SkylakeX SINGLE_THREADED
        Core in use  :  SkylakeX
   Copyright (c) 2011-2014, The OpenBLAS Project


NOTE: MaxCore=40000 MB was set to SCF,MP2,MDCI,CIPSI,MRCI and CIS
      => If you want to overwrite this, your respective input block should be placed after the MaxCore statement
================================================================================

----- Orbital basis set information -----
Your calculation utilizes the basis: DKH-def2-TZVP
   Exponents from def2-TZVP [F. Weigend and R. Ahlrichs, Phys. Chem. Chem. Phys. 7, 3297 (2005)],
   recontracted for DKH2 by D. A. Pantazis.

The basis set includes element-specific modifications.

Your calculation utilizes the basis: SARC-DKH-TZVP 
   Rb-Xe:  J. D. Rolfes, F. Neese and D. A. Pantazis, J. Comput. Chem. 41, 1842 (2020).
   La-Lu:  D. A. Pantazis and F. Neese, J. Chem. Theory Comput. 5, 2229 (2009).
   Hf-Hg:  D. A. Pantazis, X. Y. Chen, C. R. Landis and F. Neese, J. Chem. Theory Comput. 4, 908 (2008).
   Tl-Rn:  D. A. Pantazis and F. Neese, Theor. Chem. Acc. 131, 1292 (2012).
   Ac-Lr:  D. A. Pantazis and F. Neese, J. Chem. Theory Comput. 7, 677 (2011).

----- AuxJ basis set information -----
Your calculation utilizes the auxiliary basis: SARC/J 
   decontracted def2/J up to Kr:
   F. Weigend, Phys. Chem. Chem. Phys. 8, 1057 (2006)
   and SARC auxiliary basis sets beyond Kr:
   D. A. Pantazis and F. Neese, J. Chem. Theory Comput. 5, 2229 (2009).
   D. A. Pantazis, X. Y. Chen, C. R. Landis and F. Neese, J. Chem. Theory Comput. 4, 908 (2008).
   D. A. Pantazis and F. Neese, Theor. Chem. Acc. 131, 1292 (2012).
   D. A. Pantazis and F. Neese, J. Chem. Theory Comput. 7, 677 (2011).

================================================================================
                                        WARNINGS
                       Please study these warnings very carefully!
================================================================================

WARNING: Old DensityContainer found on disk!
         Will remove this file - 
         If you want to keep old densities, please start your calculation with a different basename. 


WARNING: Relativistic property calculations require picture change transformations!
  ===> : Setting %rel PictureChange = 2
INFO   : Checking CIS options ...

WARNING: CIS/ROCIS methods need fully converged wavefunctions
  ===> : Setting SCFConvForced true
         You can overwrite this default with %scf ConvForced false 


================================================================================
                                       INPUT FILE
================================================================================
NAME = 15_1_soc.inp
|  1> %pal nprocs 56
|  2> end
|  3> %pal nprocs 56
|  4> end
|  5> %pal nprocs 56
|  6> end
|  7> ! TPSSh DKH2 DKH-def2-tzvp RIJCOSX SARC/J CPCM(DCM) miniprint TightSCF defgrid3
|  8> 
|  9> %maxcore    40000
| 10> %pal nprocs 3 end
| 11> 
| 12> %basis
| 13> NewGTO Pt "SARC-DKH-TZVP" end
| 14> end
| 15> 
| 16> %tddft 
| 17> nroots      50         # no of roots to determine
| 18> DoSOC       true   
| 19> PrintLevel  3
| 20> TDA         false     # Tamm-Dancoff approx
| 21> triplets    true
| 22> end
| 23> 
| 24> * xyz 0 1
| 25>     Pt          0.48622        -0.38578        -0.01392
| 26>     C           0.50165         1.51545         0.00769
| 27>     C          -0.74967         2.25886        -0.00716
| 28>     C           1.76502         2.23800         0.03372
| 29>     C          -0.73968         3.63581         0.00486
| 30>     C           1.77720         3.61495         0.04578
| 31>     C           0.52427         4.30083         0.03175
| 32>     H          -1.65848         4.22382        -0.00537
| 33>     H           2.70533         4.18778         0.06528
| 34>     H           0.53319         5.39236         0.04132
| 35>     C           2.50253        -0.02313         0.02136
| 36>     C           4.75174         0.28140         0.05905
| 37>     H           5.79234        -0.02951         0.07132
| 38>     C          -1.52395         0.01022        -0.04274
| 39>     C          -3.76791         0.35235        -0.07133
| 40>     H          -4.81348         0.05891        -0.08895
| 41>     Cl          0.46776        -2.84823        -0.01895
| 42>     C           3.90385        -2.08935         0.01588
| 43>     H           4.45983        -2.40216         0.91149
| 44>     H           2.91387        -2.56293         0.00531
| 45>     H           4.46803        -2.38019        -0.88213
| 46>     C          -2.95863        -2.03241        -0.08326
| 47>     H          -1.97661        -2.52225        -0.06872
| 48>     H          -3.54052        -2.33306         0.80001
| 49>     H          -3.50636        -2.31693        -0.99335
| 50>     N           2.82779         1.34568         0.04154
| 51>     N           3.71270        -0.64509         0.03306
| 52>     N          -2.74415        -0.59142        -0.06588
| 53>     N          -1.82674         1.38424        -0.03330
| 54>     C          -3.20171         1.58923        -0.05105
| 55>     C           4.20600         1.52760         0.06456
| 56>     H          -3.65059         2.57704        -0.04746
| 57>     H           4.67148         2.50757         0.08289
| 58> *
| 59> 
| 60>                          ****END OF INPUT****
================================================================================

                       ****************************
                       * Single Point Calculation *
                       ****************************

---------------------------------
CARTESIAN COORDINATES (ANGSTROEM)
---------------------------------
  Pt     0.486220   -0.385780   -0.013920
  C      0.501650    1.515450    0.007690
  C     -0.749670    2.258860   -0.007160
  C      1.765020    2.238000    0.033720
  C     -0.739680    3.635810    0.004860
  C      1.777200    3.614950    0.045780
  C      0.524270    4.300830    0.031750
  H     -1.658480    4.223820   -0.005370
  H      2.705330    4.187780    0.065280
  H      0.533190    5.392360    0.041320
  C      2.502530   -0.023130    0.021360
  C      4.751740    0.281400    0.059050
  H      5.792340   -0.029510    0.071320
  C     -1.523950    0.010220   -0.042740
  C     -3.767910    0.352350   -0.071330
  H     -4.813480    0.058910   -0.088950
  Cl     0.467760   -2.848230   -0.018950
  C      3.903850   -2.089350    0.015880
  H      4.459830   -2.402160    0.911490
  H      2.913870   -2.562930    0.005310
  H      4.468030   -2.380190   -0.882130
  C     -2.958630   -2.032410   -0.083260
  H     -1.976610   -2.522250   -0.068720
  H     -3.540520   -2.333060    0.800010
  H     -3.506360   -2.316930   -0.993350
  N      2.827790    1.345680    0.041540
  N      3.712700   -0.645090    0.033060
  N     -2.744150   -0.591420   -0.065880
  N     -1.826740    1.384240   -0.033300
  C     -3.201710    1.589230   -0.051050
  C      4.206000    1.527600    0.064560
  H     -3.650590    2.577040   -0.047460
  H      4.671480    2.507570    0.082890

----------------------------
CARTESIAN COORDINATES (A.U.)
----------------------------
  NO LB      ZA    FRAG     MASS         X           Y           Z
   0 Pt   78.0000    0   195.090    0.918823   -0.729019   -0.026305
   1 C     6.0000    0    12.011    0.947981    2.863785    0.014532
   2 C     6.0000    0    12.011   -1.416671    4.268627   -0.013530
   3 C     6.0000    0    12.011    3.335404    4.229207    0.063722
   4 C     6.0000    0    12.011   -1.397793    6.870685    0.009184
   5 C     6.0000    0    12.011    3.358421    6.831265    0.086512
   6 C     6.0000    0    12.011    0.990727    8.127391    0.059999
   7 H     1.0000    0     1.008   -3.134073    7.981863   -0.010148
   8 H     1.0000    0     1.008    5.112333    7.913757    0.123361
   9 H     1.0000    0     1.008    1.007583   10.190084    0.078083
  10 C     6.0000    0    12.011    4.729096   -0.043709    0.040365
  11 C     6.0000    0    12.011    8.979487    0.531769    0.111588
  12 H     1.0000    0     1.008   10.945936   -0.055766    0.134775
  13 C     6.0000    0    12.011   -2.879848    0.019313   -0.080767
  14 C     6.0000    0    12.011   -7.120318    0.665845   -0.134794
  15 H     1.0000    0     1.008   -9.096159    0.111324   -0.168091
  16 Cl   17.0000    0    35.453    0.883938   -5.382375   -0.035810
  17 C     6.0000    0    12.011    7.377207   -3.948299    0.030009
  18 H     1.0000    0     1.008    8.427857   -4.539425    1.722466
  19 H     1.0000    0     1.008    5.506416   -4.843236    0.010034
  20 H     1.0000    0     1.008    8.443353   -4.497907   -1.666984
  21 C     6.0000    0    12.011   -5.591000   -3.840698   -0.157339
  22 H     1.0000    0     1.008   -3.735252   -4.766362   -0.129862
  23 H     1.0000    0     1.008   -6.690613   -4.408844    1.511800
  24 H     1.0000    0     1.008   -6.626060   -4.378363   -1.877159
  25 N     7.0000    0    14.007    5.343749    2.542967    0.078499
  26 N     7.0000    0    14.007    7.015986   -1.219043    0.062474
  27 N     7.0000    0    14.007   -5.185692   -1.117622   -0.124495
  28 N     7.0000    0    14.007   -3.452038    2.615835   -0.062928
  29 C     6.0000    0    12.011   -6.050355    3.003209   -0.096471
  30 C     6.0000    0    12.011    7.948188    2.886746    0.122001
  31 H     1.0000    0     1.008   -6.898615    4.869900   -0.089686
  32 H     1.0000    0     1.008    8.827818    4.738621    0.156639



           ************************************************************
           *        Program running with 3 parallel MPI-processes     *
           *              working on a common directory               *
           ************************************************************
------------------------------------------------------------------------------
                   ___                                                        
                  /   \      - P O W E R E D   B Y -                         
                 /     \                                                     
                 |  |  |   _    _      __       _____    __    __             
                 |  |  |  | |  | |    /  \     |  _  \  |  |  /  |          
                  \  \/   | |  | |   /    \    | | | |  |  | /  /          
                 / \  \   | |__| |  /  /\  \   | |_| |  |  |/  /          
                |  |  |   |  __  | /  /__\  \  |    /   |      \           
                |  |  |   | |  | | |   __   |  |    \   |  |\   \          
                \     /   | |  | | |  |  |  |  | |\  \  |  | \   \       
                 \___/    |_|  |_| |__|  |__|  |_| \__\ |__|  \__/        
                                                                              
                      - O R C A' S   B I G   F R I E N D -                    
                                      &                                       
                       - I N T E G R A L  F E E D E R -                       
                                                                              
 v1 FN, 2020, v2 2021, v3 2022-2024                                           
------------------------------------------------------------------------------


----------------------
SHARK INTEGRAL PACKAGE
----------------------

Number of atoms                             ...     33
Number of basis functions                   ...    802
Number of shells                            ...    322
Maximum angular momentum                    ...      3
Integral batch strategy                     ... SHARK/LIBINT Hybrid
RI-J (if used) integral strategy            ... SPLIT-RIJ (Revised 2003 algorithm where possible)
Printlevel                                  ...      1
Contraction scheme used                     ... SEGMENTED contraction
Prescreening option                         ... SCHWARTZ
   Thresh                                   ... 2.500e-11
   Tcut                                     ... 2.500e-12
   Tpresel                                  ... 2.500e-12 
Coulomb Range Separation                    ... NOT USED
Exchange Range Separation                   ... NOT USED
Multipole approximations                    ... NOT USED
Finite Nucleus Model                        ... NOT USED
CABS basis                                  ... NOT available
Auxiliary Coulomb fitting basis             ... AVAILABLE
   # of basis functions in Aux-J            ...   1732
   # of shells in Aux-J                     ...    622
   Maximum angular momentum in Aux-J        ...      4
Auxiliary J/K fitting basis                 ... NOT available
Auxiliary Correlation fitting basis         ... NOT available
Auxiliary 'external' fitting basis          ... NOT available

Checking pre-screening integrals            ... done (  0.0 sec) Dimension = 322
Check shell pair data                       ... done (  0.0 sec)
Shell pair information
Shell pair cut-off parameter TPreSel        ...   2.5e-12
Total number of shell pairs                 ...     52003
Shell pairs after pre-screening             ...     35329
Total number of primitive shell pairs       ...    135431
Primitive shell pairs kept                  ...     64462
          la=0 lb=0:   9065 shell pairs
          la=1 lb=0:   9963 shell pairs
          la=1 lb=1:   2686 shell pairs
          la=2 lb=0:   5306 shell pairs
          la=2 lb=1:   2891 shell pairs
          la=2 lb=2:    825 shell pairs
          la=3 lb=0:   2365 shell pairs
          la=3 lb=1:   1316 shell pairs
          la=3 lb=2:    730 shell pairs
          la=3 lb=3:    182 shell pairs

Calculating one electron integrals          ... done (  0.1 sec)
Calculating RI/J V-Matrix + Cholesky decomp.... done (  0.1 sec)
Calculating Nuclear repulsion               ... done (  0.0 sec) ENN=   3277.013861609037 Eh

Diagonalization of the overlap matrix:
Smallest eigenvalue                        ... 4.802e-06
Time for diagonalization                   ...    0.091 sec
Threshold for overlap eigenvalues          ... 1.000e-07
Number of eigenvalues below threshold      ... 0
Time for construction of square roots      ...    0.034 sec
Total time needed                          ...    0.127 sec

-------------------
DFT GRID GENERATION
-------------------

General Integration Accuracy     IntAcc      ... 4.959
Radial Grid Type                 RadialGrid  ... OptM3 with GC (2021)
Angular Grid (max. ang.)         AngularGrid ... 6 (Lebedev-590)
Angular grid pruning method      GridPruning ... 4 (adaptive)
Weight generation scheme         WeightScheme... mBecke (2022)
Basis function cutoff            BFCut       ... 1.0000e-11
Integration weight cutoff        WCut        ... 1.0000e-14
Partially contracted basis set               ... off
Rotationally invariant grid construction     ... off
Angular grids for H and He will be reduced by one unit
Core-polarized basis detected: some atoms will have their core
                               angular grid increased.
Steep s-basis detected: some atoms will have their radial
                        grid points doubled.

Total number of grid points                  ...   446789
Total number of batches                      ...     6996
Average number of points per batch           ...       63
Average number of grid points per atom       ...    13539

--------------------
COSX GRID GENERATION
--------------------

GRIDX 1
-------
General Integration Accuracy     IntAcc      ... 4.020
Radial Grid Type                 RadialGrid  ... OptM3 with GC (2021)
Angular Grid (max. ang.)         AngularGrid ... 2 (Lebedev-110)
Angular grid pruning method      GridPruning ... 4 (adaptive)
Weight generation scheme         WeightScheme... mBecke (2022)
Basis function cutoff            BFCut       ... 1.0000e-11
Integration weight cutoff        WCut        ... 1.0000e-14
Partially contracted basis set               ... on
Rotationally invariant grid construction     ... off
Angular grids for H and He will be reduced by one unit
Core-polarized basis detected: some atoms will have their core
                               angular grid increased.
Steep s-basis detected: some atoms will have their radial
                        grid points doubled.

Total number of grid points                  ...    56240
Total number of batches                      ...      456
Average number of points per batch           ...      123
Average number of grid points per atom       ...     1704
UseSFitting                                  ... on

GRIDX 2
-------
General Integration Accuracy     IntAcc      ... 4.338
Radial Grid Type                 RadialGrid  ... OptM3 with GC (2021)
Angular Grid (max. ang.)         AngularGrid ... 3 (Lebedev-194)
Angular grid pruning method      GridPruning ... 4 (adaptive)
Weight generation scheme         WeightScheme... mBecke (2022)
Basis function cutoff            BFCut       ... 1.0000e-11
Integration weight cutoff        WCut        ... 1.0000e-14
Partially contracted basis set               ... on
Rotationally invariant grid construction     ... off
Angular grids for H and He will be reduced by one unit
Core-polarized basis detected: some atoms will have their core
                               angular grid increased.
Steep s-basis detected: some atoms will have their radial
                        grid points doubled.

Total number of grid points                  ...   108453
Total number of batches                      ...      864
Average number of points per batch           ...      125
Average number of grid points per atom       ...     3286
UseSFitting                                  ... on

GRIDX 3
-------
General Integration Accuracy     IntAcc      ... 4.871
Radial Grid Type                 RadialGrid  ... OptM3 with GC (2021)
Angular Grid (max. ang.)         AngularGrid ... 4 (Lebedev-302)
Angular grid pruning method      GridPruning ... 4 (adaptive)
Weight generation scheme         WeightScheme... mBecke (2022)
Basis function cutoff            BFCut       ... 1.0000e-11
Integration weight cutoff        WCut        ... 1.0000e-14
Partially contracted basis set               ... on
Rotationally invariant grid construction     ... off
Angular grids for H and He will be reduced by one unit
Core-polarized basis detected: some atoms will have their core
                               angular grid increased.
Steep s-basis detected: some atoms will have their radial
                        grid points doubled.

Total number of grid points                  ...   202125
Total number of batches                      ...     1597
Average number of points per batch           ...      126
Average number of grid points per atom       ...     6125
UseSFitting                                  ... on
Initializing property integral containers    ... done (  0.0 sec)

SHARK setup successfully completed in  12.6 seconds

Maximum memory used throughout the entire STARTUP-calculation: 213.5 MB


           ************************************************************
           *        Program running with 3 parallel MPI-processes     *
           *              working on a common directory               *
           ************************************************************
------------------------------------------------------------------------------
                          ORCA RELATIVISTIC HAMILTONIAN
------------------------------------------------------------------------------

Relativistic Method            ... DKH
Order of DKH treatment         ...   2
Treatment of potential         ... V(e,N)
Eps parameter for DKH          ...   0.00000000010000
Nucleus model                  ... Point Nucleus
Speed of light used            ... 137.03598950000000


            ************************************************
            *        DOUGLAS-KROLL-HESS HAMILTONIAN        *
            *   Programmed by FN according to literature   *
            *        procedures. Special thanks to         *
            *       B.A. Hess, M. Reiher and A. Wolf       *
            *     University Erlangen-Nuernberg/Bonn       *
            ************************************************

Uncontracting the basis (first version)        ... done
Number of contracted basis functions           ...  802
Number of uncontracted basis functions         ... 1159
Initializing the DKH file                      ... done
Calculating the relativistic integrals         ... done
Storing DKH matrices                           ... done
Computing the DKH transformation               ... done
Storing the transformation variables           ... done
Transforming V and pVp to p**2 space           ... done
First transformation of V and pVp              ... done
Second transformation of Veff                  ... done
Adding kinetic energy                          ... done
Back transformation of Veff to r-space         ... done
Recovering DKH matrices                        ... done
Recontracting the H-matrix (first version)     ... done
Computing the DKH correction to the H-matrix   ... done
Reading the original H-matrix                  ... done
Adding DKH correction to the H-matrix          ... done
Storing the new modified H-matrix              ... done

Maximum memory used throughout the entire REL-calculation: 223.1 MB


           ************************************************************
           *        Program running with 3 parallel MPI-processes     *
           *              working on a common directory               *
           ************************************************************
Occupation numbers will be reassigned to an Aufbau configuration
             **** ENERGY FILE WAS UPDATED (15_1_soc.en.tmp) ****
Finished Guess after   0.8 sec
Maximum memory used throughout the entire GUESS-calculation: 93.0 MB


           ************************************************************
           *        Program running with 3 parallel MPI-processes     *
           *              working on a common directory               *
           ************************************************************
--------------------
CPCM SOLVATION MODEL
--------------------
CPCM parameters:
  Epsilon                                         ...       8.9990
  Refrac                                          ...       1.4242
  Rsolv                                           ...       1.3000
  Surface type                                    ... GAUSSIAN VDW
  Discretization scheme                           ... Constant charge density
    Threshold for H atoms                         ...       5.0000 (charges/Ang^2)
    Threshold for non-H atoms                     ...       5.0000 (charges/Ang^2)
  Epsilon function type                           ...         CPCM
Solvent:                                          ... DICHLOROMETHANE
Radii:
  Scheme                                          ... Element-dependent radii
  Radius for Pt used is    3.9004 Bohr (=   2.0640 Ang.)
  Radius for C  used is    3.8550 Bohr (=   2.0400 Ang.)
  Radius for H  used is    2.4944 Bohr (=   1.3200 Ang.)
  Radius for Cl used is    3.9684 Bohr (=   2.1000 Ang.)
  Radius for N  used is    3.5149 Bohr (=   1.8600 Ang.)
Calculating surface                               ...        done! (  0.0s)
Cavity surface points                             ...         3076
Cavity Volume                                     ...    2255.7449
Cavity Surface-area                               ...    1125.5870
Calculating surface distance matrix               ...        done! (  0.1s)
Performing Cholesky decomposition & store         ...        done! (  0.3s)
Overall time for CPCM initialization              ...                 0.3s

----------------------------------------D-I-I-S--------------------------------------------
Iteration    Energy (Eh)           Delta-E    RMSDP     MaxDP     DIISErr   Damp  Time(sec)
-------------------------------------------------------------------------------------------
               ***  Starting incremental Fock matrix formation  ***
    1    -19617.2873276491554861     0.00e+00  1.45e-04  1.72e-02  6.64e-02  0.700  57.3
    2    -19617.2891317790417816    -1.80e-03  1.18e-04  1.40e-02  4.65e-02  0.700  23.8
                               ***Turning on AO-DIIS***
    3    -19617.2904655952297617    -1.33e-03  8.81e-05  1.02e-02  3.26e-02  0.700  23.2
    4    -19617.2914028498453263    -9.37e-04  2.11e-04  2.37e-02  2.28e-02  0.000  22.6
                              *** Initializing SOSCF ***
---------------------------------------S-O-S-C-F--------------------------------------
Iteration    Energy (Eh)           Delta-E    RMSDP     MaxDP     MaxGrad    Time(sec)
--------------------------------------------------------------------------------------
    5    -19617.2936560250782350    -2.25e-03  1.36e-05  1.04e-03  6.36e-04    25.1
               *** Restarting incremental Fock matrix formation ***
    6    -19617.2936627159251657    -6.69e-06  1.71e-05  8.92e-04  2.16e-04    57.0
    7    -19617.2936635917867534    -8.76e-07  6.57e-06  4.32e-04  2.33e-04    33.2
    8    -19617.2936660116502026    -2.42e-06  7.64e-06  5.77e-04  7.92e-05    29.9
    9    -19617.2936659160041017     9.56e-08  2.28e-06  1.42e-04  8.48e-05    28.5
   10    -19617.2936662531392358    -3.37e-07  6.04e-06  4.11e-04  2.48e-05    24.4
   11    -19617.2936662592364883    -6.10e-09  3.44e-06  1.86e-04  3.65e-05    25.0
                 **** Energy Check signals convergence ****

               *****************************************************
               *                     SUCCESS                       *
               *           SCF CONVERGED AFTER  11 CYCLES          *
               *****************************************************

Recomputing exchange energy using gridx3       ... done (   77.283 sec)
Old exchange energy                            :    -48.686153144 Eh
New exchange energy                            :    -48.686154609 Eh
Exchange energy change after final integration :     -0.000001465 Eh
Total energy after final integration           : -19617.293667724 Eh
             **** ENERGY FILE WAS UPDATED (15_1_soc.en.tmp) ****

----------------
TOTAL SCF ENERGY
----------------

Total Energy       :     -19617.29366772412686 Eh         -533813.69926 eV

Components:
Nuclear Repulsion  :       3277.01386160903667 Eh           89172.08060 eV
Electronic Energy  :     -22894.27619577462610 Eh         -622984.92723 eV
One Electron Energy:     -33425.62233803028357 Eh         -909557.42482 eV
Two Electron Energy:      10531.34614225565929 Eh          286572.49760 eV
CPCM Dielectric    :         -0.03133209365014 Eh              -0.85259 eV

Virial components:
Potential Energy   :     -47365.06585921815713 Eh        -1288868.96686 eV
Kinetic Energy     :      27747.77219149403027 Eh          755055.26760 eV
Virial Ratio       :          1.70698625937753

DFT components:
N(Alpha)           :      109.999984497079 electrons
N(Beta)            :      109.999984497079 electrons
N(Total)           :      219.999968994158 electrons
E(X)               :     -439.465688240709 Eh       
E(C)               :       -9.677557459585 Eh       
E(XC)              :     -449.143245700294 Eh       

CPCM Solvation Model Properties:
Surface-charge          :         -0.03376899603440
Corrected charge        :         -0.00000000000000
Outlying charge corr.   :          0.00005629466766 Eh               0.00153 eV
Free-energy (cav+disp)  :  This term is not implemented in the current solvation scheme

---------------
SCF CONVERGENCE
---------------

  Last Energy change         ...    6.0973e-09  Tolerance :   1.0000e-08
  Last MAX-Density change    ...    1.8643e-04  Tolerance :   1.0000e-07
  Last RMS-Density change    ...    3.4427e-06  Tolerance :   5.0000e-09
  Last DIIS Error            ...    6.3590e-04  Tolerance :   5.0000e-07
  Last Orbital Gradient      ...    3.6455e-05  Tolerance :   1.0000e-05
  Last Orbital Rotation      ...    5.1743e-05  Tolerance :   1.0000e-05


----------------
ORBITAL ENERGIES
----------------

  NO   OCC          E(Eh)            E(eV) 
   0   2.0000   -2867.947150    -78040.8095 
   1   2.0000    -504.954548    -13740.5118 
   2   2.0000    -440.085401    -11975.3326 
   3   2.0000    -440.085141    -11975.3255 
   4   2.0000    -440.083905    -11975.2919 
   5   2.0000    -119.109932     -3241.1460 
   6   2.0000    -101.676070     -2766.7465 
   7   2.0000     -99.976458     -2720.4977 
   8   2.0000     -99.975240     -2720.4646 
   9   2.0000     -99.974084     -2720.4331 
  10   2.0000     -78.210919     -2128.2273 
  11   2.0000     -78.210354     -2128.2119 
  12   2.0000     -78.209976     -2128.2016 
  13   2.0000     -78.209143     -2128.1790 
  14   2.0000     -78.208950     -2128.1737 
  15   2.0000     -25.819129      -702.5742 
  16   2.0000     -19.467466      -529.7367 
  17   2.0000     -19.465581      -529.6854 
  18   2.0000     -19.459735      -529.5263 
  19   2.0000     -14.333310      -390.0292 
  20   2.0000     -14.333305      -390.0291 
  21   2.0000     -14.332751      -390.0140 
  22   2.0000     -14.332730      -390.0134 
  23   2.0000     -11.471088      -312.1442 
  24   2.0000     -11.465181      -311.9834 
  25   2.0000     -11.463031      -311.9249 
  26   2.0000     -11.461702      -311.8888 
  27   2.0000     -11.461562      -311.8850 
  28   2.0000     -10.190780      -277.3052 
  29   2.0000     -10.190769      -277.3049 
  30   2.0000     -10.166102      -276.6337 
  31   2.0000     -10.166091      -276.6334 
  32   2.0000     -10.166085      -276.6332 
  33   2.0000     -10.166067      -276.6327 
  34   2.0000     -10.162465      -276.5347 
  35   2.0000     -10.162454      -276.5344 
  36   2.0000     -10.153951      -276.3030 
  37   2.0000     -10.153891      -276.3014 
  38   2.0000     -10.135040      -275.7884 
  39   2.0000     -10.128770      -275.6178 
  40   2.0000     -10.128443      -275.6089 
  41   2.0000     -10.128234      -275.6032 
  42   2.0000      -9.374781      -255.1008 
  43   2.0000      -7.059284      -192.0929 
  44   2.0000      -7.056367      -192.0135 
  45   2.0000      -7.055726      -191.9961 
  46   2.0000      -3.837219      -104.4160 
  47   2.0000      -2.687580       -73.1328 
  48   2.0000      -2.687155       -73.1212 
  49   2.0000      -2.683432       -73.0199 
  50   2.0000      -2.678832       -72.8947 
  51   2.0000      -2.678658       -72.8900 
  52   2.0000      -2.677834       -72.8676 
  53   2.0000      -2.677825       -72.8673 
  54   2.0000      -2.168416       -59.0056 
  55   2.0000      -2.165438       -58.9246 
  56   2.0000      -2.139165       -58.2096 
  57   2.0000      -1.022995       -27.8371 
  58   2.0000      -1.021984       -27.8096 
  59   2.0000      -0.927755       -25.2455 
  60   2.0000      -0.923407       -25.1272 
  61   2.0000      -0.825008       -22.4496 
  62   2.0000      -0.778989       -21.1974 
  63   2.0000      -0.766962       -20.8701 
  64   2.0000      -0.732526       -19.9331 
  65   2.0000      -0.728395       -19.8206 
  66   2.0000      -0.715962       -19.4823 
  67   2.0000      -0.700294       -19.0560 
  68   2.0000      -0.697400       -18.9772 
  69   2.0000      -0.642729       -17.4895 
  70   2.0000      -0.617809       -16.8114 
  71   2.0000      -0.607346       -16.5267 
  72   2.0000      -0.581540       -15.8245 
  73   2.0000      -0.559749       -15.2315 
  74   2.0000      -0.550762       -14.9870 
  75   2.0000      -0.545106       -14.8331 
  76   2.0000      -0.499973       -13.6050 
  77   2.0000      -0.473713       -12.8904 
  78   2.0000      -0.467615       -12.7245 
  79   2.0000      -0.466301       -12.6887 
  80   2.0000      -0.465496       -12.6668 
  81   2.0000      -0.464000       -12.6261 
  82   2.0000      -0.439867       -11.9694 
  83   2.0000      -0.439190       -11.9510 
  84   2.0000      -0.432968       -11.7817 
  85   2.0000      -0.421949       -11.4818 
  86   2.0000      -0.420334       -11.4379 
  87   2.0000      -0.411417       -11.1952 
  88   2.0000      -0.404879       -11.0173 
  89   2.0000      -0.398799       -10.8519 
  90   2.0000      -0.388403       -10.5690 
  91   2.0000      -0.383011       -10.4223 
  92   2.0000      -0.377492       -10.2721 
  93   2.0000      -0.358476        -9.7546 
  94   2.0000      -0.352568        -9.5939 
  95   2.0000      -0.350228        -9.5302 
  96   2.0000      -0.323807        -8.8112 
  97   2.0000      -0.310187        -8.4406 
  98   2.0000      -0.297088        -8.0842 
  99   2.0000      -0.292694        -7.9646 
 100   2.0000      -0.286914        -7.8073 
 101   2.0000      -0.284535        -7.7426 
 102   2.0000      -0.275523        -7.4974 
 103   2.0000      -0.263489        -7.1699 
 104   2.0000      -0.238267        -6.4836 
 105   2.0000      -0.236715        -6.4414 
 106   2.0000      -0.229032        -6.2323 
 107   2.0000      -0.222507        -6.0547 
 108   2.0000      -0.207817        -5.6550 
 109   2.0000      -0.191761        -5.2181 
 110   0.0000      -0.071190        -1.9372 
 111   0.0000      -0.043110        -1.1731 
 112   0.0000      -0.005819        -0.1583 
 113   0.0000       0.001197         0.0326 
 114   0.0000       0.003931         0.1070 
 115   0.0000       0.008548         0.2326 
 116   0.0000       0.043442         1.1821 
 117   0.0000       0.051052         1.3892 
 118   0.0000       0.055061         1.4983 
 119   0.0000       0.057148         1.5551 
 120   0.0000       0.070787         1.9262 
*Only the first 10 virtual orbitals were printed.
Total SCF time: 0 days 0 hours 7 min 8 sec 
Finished LeanSCF after 428.3 sec

Maximum memory used throughout the entire LEANSCF-calculation: 148.9 MB


           ************************************************************
           *        Program running with 3 parallel MPI-processes     *
           *              working on a common directory               *
           ************************************************************

------------------------------------------------------------------------------
                         ORCA PROPERTY INTEGRAL CALCULATIONS
------------------------------------------------------------------------------

GBWName                                   ... 15_1_soc.gbw
Number of atoms                           ...     33
Number of basis functions                 ...    802
Max core memory                           ...  40000 MB

Dipole integrals                          ... YES(DKH)
Quadrupole integrals                      ...  NO
Linear momentum integrals                 ... YES
Angular momentum integrals                ... YES(DKH)
Higher moments length integrals           ...  NO
Higher moments velocity integrals         ...  NO
Kinetic energy integrals                  ...  NO
GIAO right hand sides                     ...  NO
GIAO dipole derivative integrals          ...  NO
SOC integrals                             ... YES(DKH)
EPR diamagnetic integrals (GIAO)          ...  NO
EPR gauge integrals                       ...  NO
Field gradient integrals                  ...  NO (   0 nuclei)
Spin-dipole/Fermi contact integrals       ...  NO (   0 nuclei)
Contact density integrals                 ...  NO (   0 nuclei)
Nucleus-orbit integrals                   ...  NO (   0 nuclei)
Geometric perturbations                   ...  NO (  33 nuclei)

DKH transformation order                  ... Second
Note: picture-change corrections are only included
      for the integrals annotated with "YES(DKH)"!

Choice of electric origin   ... Center of mass
Position of electric origin ... (  0.9268,  0.2240, -0.0141) 
Choice of magnetic origin   ... GIAO
Position of magnetic origin ... (  0.0000,  0.0000,  0.0000) 

Calculating integrals                     ... Electric Dipole (Length)     done (  4.6 sec)
Calculating integrals                     ... Linear Momentum              
   => DKH picture change requested for this integral but not implemented
      We calculate the integrals and skip the picture change transformation
      This may or may not have negative consequences on the accuracy of properties
      where these integrals are used
done (  0.2 sec)
Calculating integrals                     ... Angular Momentum  (ElOri)       => Using fpFW w/o magnetic field in DKH property calulation
   => First-order Trafo ... done
   => Second-order Trafo ...done
done (  1.7 sec)
Calculating integrals                     ... Spin-Orbit Coupling
  Spin-orbit operator                     ... Spin-Orbit Mean-Field (SOMF)
      1-El-Flag                           ...  1 ON
      Coulomb-Flag                        ...  3 ON (Via RI)
      Exchange-Flag                       ...  3 ON (AMFI type)
      DFT-Correlation Flag                ...  0 OFF
      Max-Center                          ...  4   
      Relativistic Picture Change         ... ON  (DKH)     
  One-electron part (DKH)                 ... done ( 42.0 sec)
  RI-J SOMF                               ... done ( 20.5 sec)
  Two-electron DoJ,X=0,1 MaxCenter=1      ... done ( 12.5 sec)
  SOC integrals done ( 75.1 sec)

Property integrals calculated in  81.7 sec

Maximum memory used throughout the entire PROPINT-calculation: 600.2 MB


           ************************************************************
           *        Program running with 3 parallel MPI-processes     *
           *              working on a common directory               *
           ************************************************************
------------------------------------------------------------------------------
                          ORCA TD-DFT CALCULATION
------------------------------------------------------------------------------

Input orbitals are from        ... 15_1_soc.gbw
CI-vector output               ... 15_1_soc.cis
Solver                         ... FN-2001
Tamm-Dancoff approximation     ... deactivated
RPA-Integral strategy          ... AO-integrals
Integral handling              ... AO integral Direct
Max. core memory used          ... 40000 MB
Reference state                ... RHF
Generation of triplets         ... on
Follow IRoot                   ... off
Number of operators            ... 1
Orbital ranges used for CIS calculation:
 Operator 0:  Orbitals  46...109  to 110...801
XAS localization array:
 Operator 0:  Orbitals  -1... -1

-------------------
XC-INTEGRATION GRID
-------------------

General Integration Accuracy     IntAcc      ... 3.467
Radial Grid Type                 RadialGrid  ... OptM3 with GC (2021)
Angular Grid (max. ang.)         AngularGrid ... 3 (Lebedev-194)
Angular grid pruning method      GridPruning ... 4 (adaptive)
Weight generation scheme         WeightScheme... mBecke (2022)
Basis function cutoff            BFCut       ... 1.0000e-11
Integration weight cutoff        WCut        ... 1.0000e-14
Partially contracted basis set               ... off
Rotationally invariant grid construction     ... off
Angular grids for H and He will be reduced by one unit
Core-polarized basis detected: some atoms will have their core
                               angular grid increased.
Steep s-basis detected: some atoms will have their radial
                        grid points doubled.

Total number of grid points                  ...    71220
Total number of batches                      ...     1132
Average number of points per batch           ...       62
Average number of grid points per atom       ...     2158

---------------------
COSX-INTEGRATION GRID
---------------------

General Integration Accuracy     IntAcc      ... 3.067
Radial Grid Type                 RadialGrid  ... OptM3 with GC (2021)
Angular Grid (max. ang.)         AngularGrid ... 2 (Lebedev-110)
Angular grid pruning method      GridPruning ... 4 (adaptive)
Weight generation scheme         WeightScheme... mBecke (2022)
Basis function cutoff            BFCut       ... 1.0000e-11
Integration weight cutoff        WCut        ... 1.0000e-14
Partially contracted basis set               ... on
Rotationally invariant grid construction     ... off
Angular grids for H and He will be reduced by one unit
Core-polarized basis detected: some atoms will have their core
                               angular grid increased.
Steep s-basis detected: some atoms will have their radial
                        grid points doubled.

Total number of grid points                  ...    34134
Total number of batches                      ...      287
Average number of points per batch           ...      118
Average number of grid points per atom       ...     1034

---------------
TD-DFT XC SETUP
---------------

DFT calculation                         ... on
Name of the grid file                   ... 15_1_soc.grid_cis.tmp
RI-approximation                        ... on
Aux-basis dimension                     ... 0
Exchange functional (TD-DFT)            ... TPSS
Correlation functional (TD-DFT)         ... TPSS
Hybrid DFT                              ... on
   Exchange mixing (TD-DFT)             ...  0.100
   GGA exch. scaling (TD-DFT)           ...  0.900
   GGA corr. scaling (TD-DFT)           ...  1.000

Building densities             ... done
Calculating rho(r) on the grid ... done
Building xc-kernel on the grid ... done
                    *** TD-DFT CALCULATION INITIALIZED ***

---------------------------------
    LR-CPCM (non-equilibrium)
---------------------------------

Setting up LR-CPCM             ... done

Entering Solve()
   ... Initialized Buffers
-------------------
RPA-DIAGONALIZATION
-------------------

Dimension of the (A+B)(A-B) eigenvalue problem ...  44288
Number of roots to be determined               ...     50
Maximum size of the expansion space            ...   1500
Convergence tolerance for the residual         ...    2.500e-07
Convergence tolerance for the energies         ...    2.500e-07
Orthogonality tolerance                        ...    1.000e-14
Constructing the preconditioner                ... o.k.
Building the initial guess                     ... o.k.
Number of trial vectors determined             ...   1500


                       ****Iteration    0****

Building the sigma vectors                     ... o.k.
Building the Hamiltonian                       ... o.k.
Forming the transformed Hamiltonian            ... o.k.
Diagonalizing the transformed Hamiltonian      ... o.k.
   Size of expansion space: 150
   lowest eigenvalues of A:
    E[ 0] =     0.1180259840 (change=   0.1180259840)  3.212 eV
    E[ 1] =     0.1264290842 (change=   0.1264290842)  3.440 eV
    E[ 2] =     0.1343599814 (change=   0.1343599814)  3.656 eV
    E[ 3] =     0.1414967443 (change=   0.1414967443)  3.850 eV
    E[ 4] =     0.1426622519 (change=   0.1426622519)  3.882 eV
    E[ 5] =     0.1584459233 (change=   0.1584459233)  4.311 eV
    E[ 6] =     0.1661398325 (change=   0.1661398325)  4.521 eV
    E[ 7] =     0.1668675563 (change=   0.1668675563)  4.541 eV
    E[ 8] =     0.1680980505 (change=   0.1680980505)  4.574 eV
    E[ 9] =     0.1696521020 (change=   0.1696521020)  4.616 eV
    E[10] =     0.1815590864 (change=   0.1815590864)  4.940 eV
    E[11] =     0.1824674028 (change=   0.1824674028)  4.965 eV
    E[12] =     0.1833985255 (change=   0.1833985255)  4.990 eV
    E[13] =     0.1843973860 (change=   0.1843973860)  5.018 eV
    E[14] =     0.1868943422 (change=   0.1868943422)  5.086 eV
    E[15] =     0.1892067460 (change=   0.1892067460)  5.148 eV
    E[16] =     0.1945069135 (change=   0.1945069135)  5.293 eV
    E[17] =     0.1953455445 (change=   0.1953455445)  5.315 eV
    E[18] =     0.1970640909 (change=   0.1970640909)  5.362 eV
    E[19] =     0.2001094572 (change=   0.2001094572)  5.445 eV
    E[20] =     0.2025984450 (change=   0.2025984450)  5.513 eV
    E[21] =     0.2036456911 (change=   0.2036456911)  5.541 eV
    E[22] =     0.2055041735 (change=   0.2055041735)  5.592 eV
    E[23] =     0.2071995097 (change=   0.2071995097)  5.638 eV
    E[24] =     0.2073419462 (change=   0.2073419462)  5.642 eV
    E[25] =     0.2117772477 (change=   0.2117772477)  5.763 eV
    E[26] =     0.2123083124 (change=   0.2123083124)  5.777 eV
    E[27] =     0.2125460529 (change=   0.2125460529)  5.784 eV
    E[28] =     0.2129083536 (change=   0.2129083536)  5.793 eV
    E[29] =     0.2144178882 (change=   0.2144178882)  5.834 eV
    E[30] =     0.2162147907 (change=   0.2162147907)  5.883 eV
    E[31] =     0.2173955296 (change=   0.2173955296)  5.915 eV
    E[32] =     0.2187149645 (change=   0.2187149645)  5.951 eV
    E[33] =     0.2191610293 (change=   0.2191610293)  5.964 eV
    E[34] =     0.2202671048 (change=   0.2202671048)  5.994 eV
    E[35] =     0.2214944006 (change=   0.2214944006)  6.027 eV
    E[36] =     0.2229007004 (change=   0.2229007004)  6.065 eV
    E[37] =     0.2234263623 (change=   0.2234263623)  6.080 eV
    E[38] =     0.2285601438 (change=   0.2285601438)  6.219 eV
    E[39] =     0.2295534172 (change=   0.2295534172)  6.246 eV
    E[40] =     0.2300151375 (change=   0.2300151375)  6.259 eV
    E[41] =     0.2305645517 (change=   0.2305645517)  6.274 eV
    E[42] =     0.2310791037 (change=   0.2310791037)  6.288 eV
    E[43] =     0.2325833567 (change=   0.2325833567)  6.329 eV
    E[44] =     0.2357916717 (change=   0.2357916717)  6.416 eV
    E[45] =     0.2359264663 (change=   0.2359264663)  6.420 eV
    E[46] =     0.2359338405 (change=   0.2359338405)  6.420 eV
    E[47] =     0.2359847495 (change=   0.2359847495)  6.421 eV
    E[48] =     0.2379611848 (change=   0.2379611848)  6.475 eV
    E[49] =     0.2390799737 (change=   0.2390799737)  6.506 eV
   Lowest Energy          :     0.118025984018
   Maximum Energy change  :     0.239079973709 (vector 49)
Backtransform the found eigenvectors           ... o.k.
   Maximum residual norm  :     0.026729893173
   Repeating orthogonalization (< 0|150>=9.647302e-06)
   Repeating orthogonalization (< 1|151>=4.971599e-05)
   Repeating orthogonalization (< 2|152>=2.044270e-03)
   Repeating orthogonalization (< 3|153>=1.692196e-02)
   Repeating orthogonalization (< 4|154>=4.386785e-04)
   Repeating orthogonalization (< 5|155>=3.874683e-02)
   Repeating orthogonalization (< 6|156>=2.012271e-02)
   Repeating orthogonalization (< 7|157>=1.740701e-01)
   Repeating orthogonalization (< 8|158>=1.350926e-01)
   Repeating orthogonalization (< 9|159>=1.450147e-02)
   Repeating orthogonalization (<10|160>=7.591127e-03)
   Repeating orthogonalization (<11|161>=7.529681e-02)
   Repeating orthogonalization (<12|162>=5.508079e-02)
   Repeating orthogonalization (<13|163>=7.821370e-02)
   Repeating orthogonalization (<14|164>=6.982038e-02)
   Repeating orthogonalization (<15|165>=5.765430e-02)
   Repeating orthogonalization (<16|166>=1.179203e-01)
   Repeating orthogonalization (<17|167>=2.257015e-02)
   Repeating orthogonalization (<18|168>=8.986158e-02)
   Repeating orthogonalization (<19|169>=4.803231e-02)
   Repeating orthogonalization (<20|170>=5.563533e-02)
   Repeating orthogonalization (<21|171>=2.384968e-02)
   Repeating orthogonalization (<22|172>=2.209298e-01)
   Repeating orthogonalization (<23|173>=1.900027e-01)
   Repeating orthogonalization (<24|174>=4.572141e-02)
   Repeating orthogonalization (<25|175>=1.105513e-02)
   Repeating orthogonalization (<26|176>=3.898066e-02)
   Repeating orthogonalization (<27|177>=1.120382e-01)
   Repeating orthogonalization (<28|178>=2.181053e-01)
   Repeating orthogonalization (<29|179>=6.729884e-02)
   Repeating orthogonalization (<30|180>=3.282005e-02)
   Repeating orthogonalization (<31|181>=7.911342e-03)
   Repeating orthogonalization (<32|182>=1.851812e-02)
   Repeating orthogonalization (<33|183>=1.502329e-01)
   Repeating orthogonalization (<34|184>=2.447664e-01)
   Repeating orthogonalization (<35|185>=1.436032e-01)
   Repeating orthogonalization (<36|186>=1.068411e-01)
   Repeating orthogonalization (<37|187>=2.408006e-01)
   Repeating orthogonalization (<38|188>=2.655088e-02)
   Repeating orthogonalization (<39|189>=8.299899e-02)
   Repeating orthogonalization (<40|190>=1.745098e-01)
   Repeating orthogonalization (<41|191>=3.079846e-02)
   Repeating orthogonalization (<42|192>=1.949127e-02)
   Repeating orthogonalization (<43|193>=1.633091e-01)
   Repeating orthogonalization (<44|194>=2.225790e-01)
   Repeating orthogonalization (<45|195>=1.604235e-01)
   Repeating orthogonalization (<46|196>=1.103559e-01)
   Repeating orthogonalization (<47|197>=8.771492e-02)
   Repeating orthogonalization (<48|198>=2.065813e-01)
   Repeating orthogonalization (<49|199>=1.815118e-01)
Storing the current CI vectors                 ... o.k.

                       ****Iteration    1****

Building the sigma vectors                     ... o.k.
Building the Hamiltonian                       ... o.k.
Forming the transformed Hamiltonian            ... o.k.
Diagonalizing the transformed Hamiltonian      ... o.k.
   Size of expansion space: 200
   lowest eigenvalues of A:
    E[ 0] =     0.1114962395 (change=  -0.0065297446)  3.034 eV
    E[ 1] =     0.1227840004 (change=  -0.0036450838)  3.341 eV
    E[ 2] =     0.1337556591 (change=  -0.0006043223)  3.640 eV
    E[ 3] =     0.1383605043 (change=  -0.0031362400)  3.765 eV
    E[ 4] =     0.1391190608 (change=  -0.0035431911)  3.786 eV
    E[ 5] =     0.1555766161 (change=  -0.0028693072)  4.233 eV
    E[ 6] =     0.1599896137 (change=  -0.0061502187)  4.353 eV
    E[ 7] =     0.1610320852 (change=  -0.0058354711)  4.382 eV
    E[ 8] =     0.1659388867 (change=  -0.0021591638)  4.515 eV
    E[ 9] =     0.1695278425 (change=  -0.0001242595)  4.613 eV
    E[10] =     0.1799599857 (change=  -0.0015991007)  4.897 eV
    E[11] =     0.1806418079 (change=  -0.0018255949)  4.915 eV
    E[12] =     0.1817960891 (change=  -0.0016024364)  4.947 eV
    E[13] =     0.1818745458 (change=  -0.0025228402)  4.949 eV
    E[14] =     0.1847674050 (change=  -0.0021269372)  5.028 eV
    E[15] =     0.1875433293 (change=  -0.0016634167)  5.103 eV
    E[16] =     0.1882514259 (change=  -0.0062554876)  5.122 eV
    E[17] =     0.1935949652 (change=  -0.0017505792)  5.268 eV
    E[18] =     0.1951128764 (change=  -0.0019512145)  5.309 eV
    E[19] =     0.1956381031 (change=  -0.0044713541)  5.323 eV
    E[20] =     0.1992182662 (change=  -0.0033801787)  5.421 eV
    E[21] =     0.2006477460 (change=  -0.0029979451)  5.460 eV
    E[22] =     0.2026597543 (change=  -0.0028444192)  5.515 eV
    E[23] =     0.2034225194 (change=  -0.0037769904)  5.535 eV
    E[24] =     0.2068414679 (change=  -0.0005004783)  5.628 eV
    E[25] =     0.2070274690 (change=  -0.0047497787)  5.633 eV
    E[26] =     0.2087692384 (change=  -0.0035390741)  5.681 eV
    E[27] =     0.2110093063 (change=  -0.0015367466)  5.742 eV
    E[28] =     0.2116787725 (change=  -0.0012295811)  5.760 eV
    E[29] =     0.2117739130 (change=  -0.0026439752)  5.763 eV
    E[30] =     0.2118577829 (change=  -0.0043570079)  5.765 eV
    E[31] =     0.2128825836 (change=  -0.0045129460)  5.793 eV
    E[32] =     0.2153757707 (change=  -0.0033391938)  5.861 eV
    E[33] =     0.2160041730 (change=  -0.0031568562)  5.878 eV
    E[34] =     0.2173697970 (change=  -0.0028973077)  5.915 eV
    E[35] =     0.2185439965 (change=  -0.0029504041)  5.947 eV
    E[36] =     0.2188699075 (change=  -0.0040307930)  5.956 eV
    E[37] =     0.2211515569 (change=  -0.0022748054)  6.018 eV
    E[38] =     0.2220627804 (change=  -0.0064973633)  6.042 eV
    E[39] =     0.2281076456 (change=  -0.0014457716)  6.207 eV
    E[40] =     0.2285455312 (change=  -0.0014696063)  6.219 eV
    E[41] =     0.2285908219 (change=  -0.0019737298)  6.220 eV
    E[42] =     0.2301747130 (change=  -0.0009043907)  6.263 eV
    E[43] =     0.2306613440 (change=  -0.0019220127)  6.276 eV
    E[44] =     0.2307458534 (change=  -0.0050458183)  6.279 eV
    E[45] =     0.2315280413 (change=  -0.0043984250)  6.300 eV
    E[46] =     0.2318218881 (change=  -0.0041119525)  6.308 eV
    E[47] =     0.2327114734 (change=  -0.0032732760)  6.332 eV
    E[48] =     0.2357243272 (change=  -0.0022368575)  6.414 eV
    E[49] =     0.2358497205 (change=  -0.0032302533)  6.418 eV
   Lowest Energy          :     0.111496239459
   Maximum Energy change  :     0.006529744559 (vector 0)
Backtransform the found eigenvectors           ... o.k.
   Maximum residual norm  :     0.001112914511
   Repeating orthogonalization (< 0|200>=4.065910e-03)
   Repeating orthogonalization (< 1|201>=3.910827e-03)
   Repeating orthogonalization (< 2|202>=4.536755e-03)
   Repeating orthogonalization (< 3|203>=3.700585e-03)
   Repeating orthogonalization (< 4|204>=4.384591e-03)
   Repeating orthogonalization (< 5|205>=6.236112e-03)
   Repeating orthogonalization (< 6|206>=5.706170e-03)
   Repeating orthogonalization (< 7|207>=1.776273e-02)
   Repeating orthogonalization (< 8|208>=1.847712e-03)
   Repeating orthogonalization (< 9|209>=2.211236e-03)
   Repeating orthogonalization (<10|210>=1.287192e-02)
   Repeating orthogonalization (<11|211>=1.190047e-02)
   Repeating orthogonalization (<12|212>=1.043715e-02)
   Repeating orthogonalization (<13|213>=1.280207e-02)
   Repeating orthogonalization (<14|214>=9.261509e-03)
   Repeating orthogonalization (<15|215>=2.847330e-02)
   Repeating orthogonalization (<16|216>=7.570106e-03)
   Repeating orthogonalization (<17|217>=1.298713e-02)
   Repeating orthogonalization (<18|218>=7.243629e-03)
   Repeating orthogonalization (<19|219>=3.253027e-02)
   Repeating orthogonalization (<20|220>=1.336011e-02)
   Repeating orthogonalization (<21|221>=1.521389e-02)
   Repeating orthogonalization (<22|222>=2.194025e-02)
   Repeating orthogonalization (<23|223>=6.613145e-03)
   Repeating orthogonalization (<24|224>=1.604039e-02)
   Repeating orthogonalization (<25|225>=2.373559e-02)
   Repeating orthogonalization (<26|226>=1.520927e-02)
   Repeating orthogonalization (<27|227>=1.037455e-02)
   Repeating orthogonalization (<28|228>=5.768317e-03)
   Repeating orthogonalization (<29|229>=1.941162e-02)
   Repeating orthogonalization (<30|230>=8.775429e-03)
   Repeating orthogonalization (<31|231>=1.151544e-02)
   Repeating orthogonalization (<32|232>=2.088825e-02)
   Repeating orthogonalization (<33|233>=1.015056e-02)
   Repeating orthogonalization (<34|234>=1.584567e-03)
   Repeating orthogonalization (<35|235>=1.511578e-02)
   Repeating orthogonalization (<36|236>=9.600371e-03)
   Repeating orthogonalization (<37|237>=1.235756e-02)
   Repeating orthogonalization (<38|238>=2.343528e-02)
   Repeating orthogonalization (<39|239>=8.776026e-03)
   Repeating orthogonalization (<40|240>=1.067455e-02)
   Repeating orthogonalization (<41|241>=2.082969e-02)
   Repeating orthogonalization (<42|242>=1.280947e-02)
   Repeating orthogonalization (<43|243>=1.737746e-02)
   Repeating orthogonalization (<44|244>=1.045535e-02)
   Repeating orthogonalization (<45|245>=2.479234e-02)
   Repeating orthogonalization (<46|246>=1.915371e-02)
   Repeating orthogonalization (<47|247>=1.872515e-02)
   Repeating orthogonalization (<48|248>=9.341073e-03)
   Repeating orthogonalization (<49|249>=7.923055e-03)
Storing the current CI vectors                 ... o.k.

                       ****Iteration    2****

Building the sigma vectors                     ... o.k.
Building the Hamiltonian                       ... o.k.
Forming the transformed Hamiltonian            ... o.k.
Diagonalizing the transformed Hamiltonian      ... o.k.
   Size of expansion space: 250
   lowest eigenvalues of A:
    E[ 0] =     0.1113380678 (change=  -0.0001581717)  3.030 eV
    E[ 1] =     0.1226872752 (change=  -0.0000967253)  3.338 eV
    E[ 2] =     0.1336934962 (change=  -0.0000621629)  3.638 eV
    E[ 3] =     0.1382779855 (change=  -0.0000825189)  3.763 eV
    E[ 4] =     0.1389933075 (change=  -0.0001257533)  3.782 eV
    E[ 5] =     0.1554666344 (change=  -0.0001099817)  4.230 eV
    E[ 6] =     0.1598105802 (change=  -0.0001790335)  4.349 eV
    E[ 7] =     0.1608366753 (change=  -0.0001954099)  4.376 eV
    E[ 8] =     0.1659063199 (change=  -0.0000325668)  4.514 eV
    E[ 9] =     0.1695084938 (change=  -0.0000193487)  4.612 eV
    E[10] =     0.1798525706 (change=  -0.0001074151)  4.894 eV
    E[11] =     0.1805248367 (change=  -0.0001169713)  4.912 eV
    E[12] =     0.1817134469 (change=  -0.0000826423)  4.945 eV
    E[13] =     0.1818119182 (change=  -0.0000626276)  4.947 eV
    E[14] =     0.1847088767 (change=  -0.0000585282)  5.026 eV
    E[15] =     0.1872911366 (change=  -0.0002521927)  5.096 eV
    E[16] =     0.1881710360 (change=  -0.0000803899)  5.120 eV
    E[17] =     0.1934604625 (change=  -0.0001345027)  5.264 eV
    E[18] =     0.1950534245 (change=  -0.0000594518)  5.308 eV
    E[19] =     0.1951789313 (change=  -0.0004591718)  5.311 eV
    E[20] =     0.1991113254 (change=  -0.0001069408)  5.418 eV
    E[21] =     0.2005378677 (change=  -0.0001098783)  5.457 eV
    E[22] =     0.2025192334 (change=  -0.0001405209)  5.511 eV
    E[23] =     0.2033832842 (change=  -0.0000392352)  5.534 eV
    E[24] =     0.2066026936 (change=  -0.0002387743)  5.622 eV
    E[25] =     0.2069090434 (change=  -0.0001184256)  5.630 eV
    E[26] =     0.2085481087 (change=  -0.0002211297)  5.675 eV
    E[27] =     0.2107875330 (change=  -0.0002217733)  5.736 eV
    E[28] =     0.2115466632 (change=  -0.0001321093)  5.756 eV
    E[29] =     0.2116543698 (change=  -0.0001195432)  5.759 eV
    E[30] =     0.2118057060 (change=  -0.0000520768)  5.763 eV
    E[31] =     0.2127278839 (change=  -0.0001546997)  5.788 eV
    E[32] =     0.2151871831 (change=  -0.0001885876)  5.855 eV
    E[33] =     0.2159778932 (change=  -0.0000262798)  5.877 eV
    E[34] =     0.2173640715 (change=  -0.0000057255)  5.915 eV
    E[35] =     0.2184831371 (change=  -0.0000608595)  5.945 eV
    E[36] =     0.2187758221 (change=  -0.0000940854)  5.953 eV
    E[37] =     0.2210085326 (change=  -0.0001430243)  6.014 eV
    E[38] =     0.2217935362 (change=  -0.0002692442)  6.035 eV
    E[39] =     0.2280379617 (change=  -0.0000696839)  6.205 eV
    E[40] =     0.2283779261 (change=  -0.0001676051)  6.214 eV
    E[41] =     0.2285104746 (change=  -0.0000803473)  6.218 eV
    E[42] =     0.2301152259 (change=  -0.0000594872)  6.262 eV
    E[43] =     0.2305441144 (change=  -0.0001172296)  6.273 eV
    E[44] =     0.2306602769 (change=  -0.0000855765)  6.276 eV
    E[45] =     0.2312716164 (change=  -0.0002564249)  6.293 eV
    E[46] =     0.2316797894 (change=  -0.0001420986)  6.304 eV
    E[47] =     0.2325714544 (change=  -0.0001400191)  6.328 eV
    E[48] =     0.2356731878 (change=  -0.0000511394)  6.413 eV
    E[49] =     0.2358329943 (change=  -0.0000167261)  6.417 eV
   Lowest Energy          :     0.111338067784
   Maximum Energy change  :     0.000459171786 (vector 19)
Backtransform the found eigenvectors           ... o.k.
   Maximum residual norm  :     0.000328243564
   Repeating orthogonalization (< 0|250>=2.488375e-03)
   Repeating orthogonalization (< 1|251>=2.562191e-03)
   Repeating orthogonalization (< 2|252>=1.389080e-03)
   Repeating orthogonalization (< 3|253>=4.659863e-03)
   Repeating orthogonalization (< 4|254>=2.672697e-03)
   Repeating orthogonalization (< 5|255>=3.283186e-03)
   Repeating orthogonalization (< 6|256>=4.170270e-03)
   Repeating orthogonalization (< 7|257>=3.671205e-03)
   Repeating orthogonalization (< 8|258>=9.046478e-04)
   Repeating orthogonalization (< 9|259>=1.795064e-03)
   Repeating orthogonalization (<10|260>=4.109878e-03)
   Repeating orthogonalization (<11|261>=4.050450e-03)
   Repeating orthogonalization (<12|262>=1.707586e-03)
   Repeating orthogonalization (<13|263>=2.100964e-03)
   Repeating orthogonalization (<14|264>=8.091370e-03)
   Repeating orthogonalization (<15|265>=3.346326e-03)
   Repeating orthogonalization (<16|266>=1.048536e-02)
   Repeating orthogonalization (<17|267>=7.184495e-03)
   Repeating orthogonalization (<18|268>=3.892066e-03)
   Repeating orthogonalization (<19|269>=6.910731e-03)
   Repeating orthogonalization (<20|270>=7.386323e-03)
   Repeating orthogonalization (<21|271>=7.151412e-03)
   Repeating orthogonalization (<22|272>=5.714762e-03)
   Repeating orthogonalization (<23|273>=2.160294e-03)
   Repeating orthogonalization (<24|274>=8.707226e-03)
   Repeating orthogonalization (<25|275>=6.377698e-03)
   Repeating orthogonalization (<26|276>=3.120930e-02)
   Repeating orthogonalization (<27|277>=1.044868e-02)
   Repeating orthogonalization (<28|278>=2.181615e-02)
   Repeating orthogonalization (<29|279>=4.852295e-03)
   Repeating orthogonalization (<30|280>=5.748667e-03)
   Repeating orthogonalization (<31|281>=1.795405e-02)
   Repeating orthogonalization (<32|282>=7.815088e-03)
   Repeating orthogonalization (<33|283>=6.529356e-03)
   Repeating orthogonalization (<34|284>=7.586374e-04)
   Repeating orthogonalization (<35|285>=3.558084e-03)
   Repeating orthogonalization (<36|286>=5.821455e-03)
   Repeating orthogonalization (<37|287>=7.309528e-03)
   Repeating orthogonalization (<38|288>=7.298667e-03)
   Repeating orthogonalization (<39|289>=1.049966e-02)
   Repeating orthogonalization (<40|290>=1.209708e-02)
   Repeating orthogonalization (<41|291>=2.016152e-02)
   Repeating orthogonalization (<42|292>=5.695489e-03)
   Repeating orthogonalization (<43|293>=1.079515e-02)
   Repeating orthogonalization (<44|294>=5.997060e-03)
   Repeating orthogonalization (<45|295>=1.145808e-02)
   Repeating orthogonalization (<46|296>=6.749204e-03)
   Repeating orthogonalization (<47|297>=9.836022e-03)
   Repeating orthogonalization (<48|298>=3.240967e-03)
   Repeating orthogonalization (<49|299>=2.314058e-03)
Storing the current CI vectors                 ... o.k.

                       ****Iteration    3****

Building the sigma vectors                     ... o.k.
Building the Hamiltonian                       ... o.k.
Forming the transformed Hamiltonian            ... o.k.
Diagonalizing the transformed Hamiltonian      ... o.k.
   Size of expansion space: 300
   lowest eigenvalues of A:
    E[ 0] =     0.1113057560 (change=  -0.0000323117)  3.029 eV
    E[ 1] =     0.1226557474 (change=  -0.0000315278)  3.338 eV
    E[ 2] =     0.1336886512 (change=  -0.0000048450)  3.638 eV
    E[ 3] =     0.1382582803 (change=  -0.0000197052)  3.762 eV
    E[ 4] =     0.1389378638 (change=  -0.0000554438)  3.781 eV
    E[ 5] =     0.1554419493 (change=  -0.0000246850)  4.230 eV
    E[ 6] =     0.1597722830 (change=  -0.0000382972)  4.348 eV
    E[ 7] =     0.1608018313 (change=  -0.0000348440)  4.376 eV
    E[ 8] =     0.1659044736 (change=  -0.0000018463)  4.514 eV
    E[ 9] =     0.1695057317 (change=  -0.0000027620)  4.612 eV
    E[10] =     0.1798158708 (change=  -0.0000366998)  4.893 eV
    E[11] =     0.1805109466 (change=  -0.0000138901)  4.912 eV
    E[12] =     0.1816965984 (change=  -0.0000168485)  4.944 eV
    E[13] =     0.1817909910 (change=  -0.0000209272)  4.947 eV
    E[14] =     0.1846835840 (change=  -0.0000252927)  5.025 eV
    E[15] =     0.1872467355 (change=  -0.0000444011)  5.095 eV
    E[16] =     0.1880893883 (change=  -0.0000816477)  5.118 eV
    E[17] =     0.1934112564 (change=  -0.0000492061)  5.263 eV
    E[18] =     0.1950460868 (change=  -0.0000073377)  5.307 eV
    E[19] =     0.1951016781 (change=  -0.0000772532)  5.309 eV
    E[20] =     0.1990868686 (change=  -0.0000244569)  5.417 eV
    E[21] =     0.2004760881 (change=  -0.0000617796)  5.455 eV
    E[22] =     0.2024741129 (change=  -0.0000451205)  5.509 eV
    E[23] =     0.2033806168 (change=  -0.0000026673)  5.534 eV
    E[24] =     0.2065389195 (change=  -0.0000637741)  5.620 eV
    E[25] =     0.2068657194 (change=  -0.0000433240)  5.629 eV
    E[26] =     0.2083017913 (change=  -0.0002463174)  5.668 eV
    E[27] =     0.2106579691 (change=  -0.0001295639)  5.732 eV
    E[28] =     0.2114284150 (change=  -0.0001182482)  5.753 eV
    E[29] =     0.2116497509 (change=  -0.0000046188)  5.759 eV
    E[30] =     0.2117671678 (change=  -0.0000385383)  5.762 eV
    E[31] =     0.2125544927 (change=  -0.0001733913)  5.784 eV
    E[32] =     0.2151317625 (change=  -0.0000554206)  5.854 eV
    E[33] =     0.2159697067 (change=  -0.0000081865)  5.877 eV
    E[34] =     0.2173633126 (change=  -0.0000007589)  5.915 eV
    E[35] =     0.2184775646 (change=  -0.0000055725)  5.945 eV
    E[36] =     0.2187380361 (change=  -0.0000377860)  5.952 eV
    E[37] =     0.2209269341 (change=  -0.0000815985)  6.012 eV
    E[38] =     0.2217361145 (change=  -0.0000574217)  6.034 eV
    E[39] =     0.2279209592 (change=  -0.0001170025)  6.202 eV
    E[40] =     0.2282858244 (change=  -0.0000921017)  6.212 eV
    E[41] =     0.2284662054 (change=  -0.0000442692)  6.217 eV
    E[42] =     0.2301061848 (change=  -0.0000090410)  6.261 eV
    E[43] =     0.2305057735 (change=  -0.0000383409)  6.272 eV
    E[44] =     0.2306387259 (change=  -0.0000215510)  6.276 eV
    E[45] =     0.2312157357 (change=  -0.0000558806)  6.292 eV
    E[46] =     0.2316418946 (change=  -0.0000378948)  6.303 eV
    E[47] =     0.2325274088 (change=  -0.0000440455)  6.327 eV
    E[48] =     0.2356667483 (change=  -0.0000064395)  6.413 eV
    E[49] =     0.2358311494 (change=  -0.0000018449)  6.417 eV
   Lowest Energy          :     0.111305756040
   Maximum Energy change  :     0.000246317384 (vector 26)
Backtransform the found eigenvectors           ... o.k.
   Maximum residual norm  :     0.000068760179
   Repeating orthogonalization (< 0|300>=8.185956e-04)
   Repeating orthogonalization (< 1|301>=7.164235e-04)
   Repeating orthogonalization (< 2|302>=5.022575e-04)
   Repeating orthogonalization (< 3|303>=7.048970e-04)
   Repeating orthogonalization (< 4|304>=1.388269e-03)
   Repeating orthogonalization (< 5|305>=1.077621e-03)
   Repeating orthogonalization (< 6|306>=1.815655e-03)
   Repeating orthogonalization (< 7|307>=4.173490e-03)
   Repeating orthogonalization (< 8|308>=4.186448e-04)
   Repeating orthogonalization (< 9|309>=7.998891e-04)
   Repeating orthogonalization (<10|310>=2.297737e-03)
   Repeating orthogonalization (<11|311>=1.653594e-03)
   Repeating orthogonalization (<12|312>=1.329000e-03)
   Repeating orthogonalization (<13|313>=2.241791e-03)
   Repeating orthogonalization (<14|314>=2.224219e-03)
   Repeating orthogonalization (<15|315>=5.032588e-03)
   Repeating orthogonalization (<16|316>=1.869410e-03)
   Repeating orthogonalization (<17|317>=2.985967e-03)
   Repeating orthogonalization (<18|318>=1.071286e-03)
   Repeating orthogonalization (<19|319>=4.541754e-03)
   Repeating orthogonalization (<20|320>=1.991446e-03)
   Repeating orthogonalization (<21|321>=1.952188e-03)
   Repeating orthogonalization (<22|322>=4.310285e-03)
   Repeating orthogonalization (<23|323>=6.898679e-04)
   Repeating orthogonalization (<24|324>=6.646376e-03)
   Repeating orthogonalization (<25|325>=1.979773e-03)
   Repeating orthogonalization (<26|326>=3.147363e-03)
   Repeating orthogonalization (<27|327>=4.019884e-03)
   Repeating orthogonalization (<28|328>=6.801718e-03)
   Repeating orthogonalization (<29|329>=1.105607e-03)
   Repeating orthogonalization (<30|330>=1.785373e-03)
   Repeating orthogonalization (<31|331>=3.928215e-03)
   Repeating orthogonalization (<32|332>=4.265343e-03)
   Repeating orthogonalization (<33|333>=2.623539e-03)
   Repeating orthogonalization (<34|334>=4.556790e-04)
   Repeating orthogonalization (<35|335>=9.521561e-04)
   Repeating orthogonalization (<36|336>=2.361138e-03)
   Repeating orthogonalization (<37|337>=3.501606e-03)
   Repeating orthogonalization (<38|338>=6.483474e-03)
   Repeating orthogonalization (<39|339>=5.401769e-03)
   Repeating orthogonalization (<40|340>=4.842153e-03)
   Repeating orthogonalization (<41|341>=4.116640e-03)
   Repeating orthogonalization (<42|342>=2.710727e-03)
   Repeating orthogonalization (<43|343>=4.822521e-03)
   Repeating orthogonalization (<44|344>=2.281651e-03)
   Repeating orthogonalization (<45|345>=3.719705e-03)
   Repeating orthogonalization (<46|346>=5.438699e-03)
   Repeating orthogonalization (<47|347>=4.359063e-03)
   Repeating orthogonalization (<48|348>=1.593501e-03)
   Repeating orthogonalization (<49|349>=1.037811e-03)
Storing the current CI vectors                 ... o.k.

                       ****Iteration    4****

Building the sigma vectors                     ... o.k.
[...]
  0-1.0A  -> 92-1.3A    5.291188   42676.3   234.3   -0.41381   0.00009   0.00064   0.00007
  0-1.0A  -> 93-2.9A    5.293477   42694.8   234.2    0.58357   0.00011   0.02914   0.00449
  0-1.0A  -> 94-2.7A    5.301879   42762.5   233.8    0.07105   0.00035   0.01609   0.00248
  0-1.0A  -> 95-2.8A    5.303152   42772.8   233.8   -0.01775   0.00941   0.00089   0.00064
  0-1.0A  -> 96-3.0A    5.305930   42795.2   233.7   -0.01009   0.00037   0.00054   0.02702
  0-1.0A  -> 97-2.9A    5.314754   42866.4   233.3    0.00115   0.00048   0.00004   0.00022
  0-1.0A  -> 98-2.9A    5.336642   43042.9   232.3    0.00071   0.00095   0.00003   0.00012
  0-1.0A  -> 99-2.9A    5.342098   43086.9   232.1   -0.00067   0.00005   0.00669   0.00441
  0-1.0A  -> 100-2.6A    5.347314   43129.0   231.9   -0.04245   0.00045   0.03661   0.00158
  0-1.0A  -> 101-3.0A    5.363729   43261.4   231.2   -0.00839   0.00106   0.00026   0.00017
  0-1.0A  -> 102-2.9A    5.372136   43329.2   230.8   -0.08994   0.01623   0.00066   0.00463
  0-1.0A  -> 103-1.4A    5.374486   43348.2   230.7    0.18478   0.01106   0.01157   0.70298
  0-1.0A  -> 104-2.3A    5.375705   43358.0   230.6   -0.07454   0.00026   0.08399   0.02587
  0-1.0A  -> 105-2.4A    5.393499   43501.5   229.9    0.11722   0.02524   0.00011   0.00085
  0-1.0A  -> 106-1.9A    5.426388   43766.8   228.5    0.00856   0.00001   0.00807   0.00704
  0-1.0A  -> 107-1.9A    5.453117   43982.4   227.4    0.02330   0.00155   0.00038   0.00099
  0-1.0A  -> 108-2.6A    5.476634   44172.0   226.4    0.00530   0.00259   0.00162   0.16636
  0-1.0A  -> 109-2.9A    5.492995   44304.0   225.7    0.03306   0.00116   0.00030   0.00135
  0-1.0A  -> 110-2.9A    5.496439   44331.8   225.6   -0.02244   0.00925   0.00052   0.00162
  0-1.0A  -> 111-2.8A    5.498201   44346.0   225.5   -0.02738   0.00033   0.05484   0.00396
  0-1.0A  -> 112-2.2A    5.502648   44381.9   225.3    0.00963   0.00077   0.00860   0.04427
  0-1.0A  -> 113-2.7A    5.520115   44522.7   224.6    0.01043   0.00050   0.00003   0.00058
  0-1.0A  -> 114-2.9A    5.537680   44664.4   223.9   -0.06631   0.00792   0.00044   0.00609
  0-1.0A  -> 115-2.9A    5.538316   44669.5   223.9    0.04734   0.00064   0.00065   0.02404
  0-1.0A  -> 116-2.3A    5.545375   44726.5   223.6   -0.04279   0.00056   0.06648   0.00858
  0-1.0A  -> 117-2.6A    5.554983   44804.0   223.2    0.15626   0.00537   0.01544   0.31882
  0-1.0A  -> 118-2.7A    5.555807   44810.6   223.2    0.03253   0.00083   0.04999   0.07201
  0-1.0A  -> 119-2.8A    5.562386   44863.7   222.9   -0.01428   0.02165   0.00012   0.00043
  0-1.0A  -> 120-2.8A    5.589967   45086.1   221.8   -0.08039   0.04062   0.00041   0.00324
  0-1.0A  -> 121-2.5A    5.618706   45317.9   220.7    0.03230   0.00004   0.01842   0.00513
  0-1.0A  -> 122-2.8A    5.620316   45330.9   220.6   -0.04430   0.04429   0.00012   0.00124
  0-1.0A  -> 123-3.0A    5.622364   45347.4   220.5   -0.03219   0.01296   0.00062   0.00046
  0-1.0A  -> 124-2.6A    5.634905   45448.6   220.0    0.01038   0.00076   0.04922   0.01302
  0-1.0A  -> 125-2.4A    5.638995   45481.6   219.9    0.08630   0.00410   0.00041   0.24583
  0-1.0A  -> 126-2.8A    5.654028   45602.8   219.3    0.15310   0.03140   0.00011   0.00634
  0-1.0A  -> 127-2.3A    5.656131   45619.8   219.2   -0.22384   0.00171   0.00024   0.19123
  0-1.0A  -> 128-2.9A    5.663472   45679.0   218.9    0.08801   0.00058   0.00085   0.00060
  0-1.0A  -> 129-2.6A    5.677539   45792.4   218.4   -0.05626   0.00049   0.06909   0.00556
  0-1.0A  -> 130-2.6A    5.684767   45850.7   218.1   -0.04963   0.00337   0.00049   0.00049
  0-1.0A  -> 131-2.9A    5.692510   45913.2   217.8   -0.00199   0.00035   0.02373   0.00887
  0-1.0A  -> 132-2.6A    5.711720   46068.1   217.1   -0.57598   0.00836   0.00058   0.02402
  0-1.0A  -> 133-2.2A    5.712069   46071.0   217.1    0.60232   0.00502   0.00094   0.04135
  0-1.0A  -> 134-2.7A    5.729087   46208.2   216.4    0.02569   0.00027   0.00027   0.00005
  0-1.0A  -> 135-2.5A    5.747545   46357.1   215.7   -0.03256   0.00504   0.00354   0.30433
  0-1.0A  -> 136-2.9A    5.753209   46402.8   215.5    0.00198   0.01199   0.00002   0.00027
  0-1.0A  -> 137-2.5A    5.754315   46411.7   215.5    0.25853   0.00139   0.00176   0.00437
  0-1.0A  -> 138-2.2A    5.756036   46425.6   215.4   -0.27684   0.00035   0.01282   0.02057
  0-1.0A  -> 139-1.8A    5.769951   46537.8   214.9   -0.39785   0.00704   0.00631   0.43271
  0-1.0A  -> 140-2.2A    5.773036   46562.7   214.8    0.05576   0.00373   0.00130   0.00331
  0-1.0A  -> 141-1.7A    5.784894   46658.3   214.3    0.31662   0.00909   0.00035   0.01157
  0-1.0A  -> 142-1.9A    5.788552   46687.8   214.2   -0.05067   0.00098   0.06041   0.03492
  0-1.0A  -> 143-2.7A    5.791289   46709.9   214.1    0.14407   0.00304   0.01312   0.20160
  0-1.0A  -> 144-2.0A    5.800256   46782.2   213.8   -0.11193   0.00110   0.00056   0.00097
  0-1.0A  -> 145-2.9A    5.812515   46881.1   213.3   -0.01057   0.01597   0.00015   0.00078
  0-1.0A  -> 146-2.4A    5.840290   47105.1   212.3    0.01826   0.00000   0.00068   0.01386
  0-1.0A  -> 147-2.9A    5.841784   47117.2   212.2    0.02972   0.00159   0.00006   0.00182
  0-1.0A  -> 148-2.7A    5.842952   47126.6   212.2   -0.00311   0.00128   0.00007   0.00048
  0-1.0A  -> 149-2.5A    5.852420   47203.0   211.9   -0.01013   0.00023   0.01678   0.00467
  0-1.0A  -> 150-2.6A    5.868629   47333.7   211.3   -0.02373   0.00170   0.00371   0.11862
  0-1.0A  -> 151-2.6A    5.871383   47355.9   211.2   -0.24410   0.00018   0.03849   0.01024
  0-1.0A  -> 152-2.2A    5.874721   47382.8   211.0    0.25908   0.00024   0.00078   0.00023
  0-1.0A  -> 153-2.0A    5.875343   47387.8   211.0    0.02311   0.00750   0.00011   0.00068
  0-1.0A  -> 154-1.8A    5.903014   47611.0   210.0   -0.13498   0.00161   0.00039   0.00001
  0-1.0A  -> 155-2.8A    5.917279   47726.1   209.5   -0.01493   0.00343   0.00012   0.00048
  0-1.0A  -> 156-2.9A    5.917896   47731.1   209.5    0.00431   0.00741   0.00010   0.00024
  0-1.0A  -> 157-2.9A    5.919060   47740.4   209.5    0.00227   0.00014   0.00414   0.00270
  0-1.0A  -> 158-2.9A    5.922407   47767.4   209.3    0.01051   0.00008   0.01727   0.00022
  0-1.0A  -> 159-2.5A    5.944989   47949.6   208.6   -0.01532   0.03200   0.00047   0.00061
  0-1.0A  -> 160-1.4A    5.951233   47999.9   208.3   -0.05461   0.00094   0.09143   0.00297
  0-1.0A  -> 161-2.4A    5.959883   48069.7   208.0    0.00448   0.00016   0.01076   0.00352
  0-1.0A  -> 162-2.2A    5.971020   48159.5   207.6   -0.05436   0.00172   0.00108   0.00002
  0-1.0A  -> 163-2.2A    6.007036   48450.0   206.4   -0.00497   0.00168   0.00395   0.11216
  0-1.0A  -> 164-2.6A    6.008909   48465.1   206.3    0.02596   0.00094   0.01634   0.05220
  0-1.0A  -> 165-2.7A    6.011201   48483.6   206.3   -0.01145   0.00149   0.00269   0.09045
  0-1.0A  -> 166-2.4A    6.036503   48687.7   205.4    0.02052   0.00324   0.00017   0.00020
  0-1.0A  -> 167-1.1A    6.043703   48745.8   205.1    0.02065   0.00139   0.18827   0.00564
  0-1.0A  -> 168-2.6A    6.069922   48957.2   204.3    0.03642   0.00188   0.00122   0.07025
  0-1.0A  -> 169-1.9A    6.095407   49162.8   203.4    0.01927   0.00276   0.00040   0.00010
  0-1.0A  -> 170-2.8A    6.104466   49235.8   203.1    0.02820   0.00554   0.00002   0.00179
  0-1.0A  -> 171-2.8A    6.105985   49248.1   203.1    0.00644   0.00058   0.02071   0.02559
  0-1.0A  -> 172-2.9A    6.114529   49317.0   202.8    0.00986   0.00067   0.01469   0.04023
  0-1.0A  -> 173-2.7A    6.115506   49324.9   202.7    0.01045   0.00318   0.00415   0.18988
  0-1.0A  -> 174-2.4A    6.120635   49366.3   202.6   -0.02322   0.01994   0.00049   0.00250
  0-1.0A  -> 175-2.6A    6.151623   49616.2   201.5    0.00584   0.00055   0.00009   0.00027
  0-1.0A  -> 176-2.4A    6.156428   49654.9   201.4   -0.32309   0.09673   0.00093   0.01198
  0-1.0A  -> 177-3.0A    6.160960   49691.5   201.2   -0.01866   0.00036   0.00763   0.00997
  0-1.0A  -> 178-2.9A    6.168350   49751.1   201.0    0.00423   0.00106   0.00047   0.00378
  0-1.0A  -> 179-2.5A    6.174333   49799.4   200.8   -1.76944   0.13078   0.00146   0.03229
  0-1.0A  -> 180-2.5A    6.179588   49841.7   200.6    1.86497   0.01736   0.00624   0.52090
  0-1.0A  -> 181-2.8A    6.192268   49944.0   200.2    0.04811   0.00709   0.00060   0.00214
  0-1.0A  -> 182-2.9A    6.197812   49988.7   200.0   -0.00040   0.00303   0.00002   0.00041
  0-1.0A  -> 183-2.7A    6.210884   50094.2   199.6   -0.02161   0.00064   0.03625   0.02929
  0-1.0A  -> 184-2.6A    6.229055   50240.7   199.0    0.26961   0.00821   0.00932   0.37737
  0-1.0A  -> 185-2.7A    6.231747   50262.4   199.0    0.03635   0.00203   0.02692   0.08401
  0-1.0A  -> 186-2.5A    6.241267   50339.2   198.7    0.09867   0.07096   0.00098   0.00009
  0-1.0A  -> 187-2.8A    6.245103   50370.2   198.5   -0.02671   0.00062   0.03738   0.07672
  0-1.0A  -> 188-2.8A    6.247836   50392.2   198.4   -0.48649   0.00007   0.00852   0.25316
  0-1.0A  -> 189-1.1A    6.258662   50479.5   198.1    0.50867   0.14712   0.00069   0.01071
  0-1.0A  -> 190-1.9A    6.260413   50493.6   198.0   -0.62449   0.00156   0.00788   0.40730
  0-1.0A  -> 191-1.6A    6.276099   50620.2   197.5    0.02795   0.16771   0.00147   0.00020
  0-1.0A  -> 192-2.5A    6.280920   50659.0   197.4   -0.04539   0.02009   0.00139   0.00008
  0-1.0A  -> 193-1.9A    6.309212   50887.2   196.5   -0.78123   0.12817   0.00124   0.00950
  0-1.0A  -> 194-1.3A    6.333327   51081.7   195.8    0.12749   0.00094   0.04514   0.01449
  0-1.0A  -> 195-1.4A    6.341983   51151.5   195.5   -0.00852   0.00365   0.00336   0.00069
  0-1.0A  -> 196-1.3A    6.378849   51448.9   194.4    0.71180   0.00056   0.00086   0.10686
  0-1.0A  -> 197-1.4A    6.401983   51635.5   193.7   -0.14537   0.00488   0.00101   0.00428
  0-1.0A  -> 198-1.0A    6.412933   51723.8   193.3    0.67904   0.18351   0.00101   0.01032
  0-1.0A  -> 199-1.7A    6.416518   51752.7   193.2   -0.43726   0.00880   0.02012   0.75496
  0-1.0A  -> 200-1.0A    6.417662   51761.9   193.2    0.40070   0.00779   0.06664   0.15035

Total run time:     4164.104 sec

           *** ORCA-CIS/TD-DFT FINISHED WITHOUT ERROR ***

---------------------------
SOC CIS/TD-DFT TOTAL ENERGY
---------------------------

    E(SCF)        = -19617.293667724 Eh
    E(SOC CIS)    =      0.083503966 Eh (SOC Root  1)
    ----------------------------- ---------
    E(tot)        = -19617.210163758 Eh


Maximum memory used throughout the entire CIS-calculation: 4829.1 MB
=> NOW LEAVING ORCA_CIS

-------------------------   --------------------
FINAL SINGLE POINT ENERGY    -19617.210163757667
-------------------------   --------------------



           ************************************************************
           *        Program running with 3 parallel MPI-processes     *
           *              working on a common directory               *
           ************************************************************

------------------------------------------------------------------------------
                              ORCA PROPERTY CALCULATIONS
------------------------------------------------------------------------------

GBWName                                 ... 15_1_soc.gbw
Number of atoms                         ...     33
Number of basis functions               ...    802
Max core memory                         ...  40000 MB

Electric properties:
Dipole moment                           ... YES(DKH)
Quadrupole moment                       ...  NO
Static polarizability (Dipole/Dipole)   ...  NO
Static polarizability (Dipole/Quad.)    ...  NO
Static polarizability (Quad./Quad.)     ...  NO
Static polarizability (Velocity)        ...  NO

Atomic electric properties:
Dipole moment                           ...  NO
Quadrupole moment                       ...  NO
Static polarizability                   ...  NO

Choice of electric origin               ... Center of mass
Position of electric origin             ...     0.926801     0.224024    -0.014103

General magnetic properties:
Magnetizability                         ...  NO

EPR properties:
g-Tensor (aka g-matrix)                 ...  NO
Zero-Field splitting spin-orbit         ...  NO
Zero-field splitting spin-spin          ...  NO
Hyperfine couplings                     ...  NO (   0 nuclei)
Quadrupole couplings                    ...  NO (   0 nuclei)
Contact density                         ...  NO (   0 nuclei)

NMR properties:
Chemical shifts                         ...  NO (   0 nuclei)
Spin-rotation constants                 ...  NO (   0 nuclei)
Spin-spin couplings                     ...  NO (   0 nuclei,    0 pairs)

Choice of magnetic origin               ... GIAO
Position of magnetic origin             ...     0.000000     0.000000     0.000000

Properties with geometric perturbations:
SCF Hessian                             ...  NO
IR spectrum                             ...  NO
VCD spectrum                            ...  NO
X-ray spectroscopy properties:
SCF XES/XAS/RIXS spectra                ...  NO

DKH transformation order                ... Second
Note: picture-change corrections are only included
      for the properties annotated with "YES(DKH)"!


-------------
DIPOLE MOMENT
-------------

Method             : SCF
Type of density    : Electron Density
Multiplicity       :   1
Irrep              :   0
Energy             : -19617.2936677241268626 Eh
Relativity type    : 
Basis              : AO
                                X                 Y                 Z
Electronic contribution:     -0.189778791     -22.931971616      -0.239513936
Nuclear contribution   :      0.206618055      25.212271848       0.242206717
                        -----------------------------------------
Total Dipole Moment    :      0.016839264       2.280300232       0.002692780
                        -----------------------------------------
Magnitude (a.u.)       :      2.280363998
Magnitude (Debye)      :      5.796224649



--------------------
Rotational spectrum 
--------------------
 
Rotational constants in cm-1:             0.012584             0.009128             0.005301 
Rotational constants in MHz :           377.269718           273.660284           158.934254 

Dipole components along the rotational axes: 
x,y,z [a.u.] :    -0.003094    -2.280299    -0.016926 
x,y,z [Debye]:    -0.007865    -5.796060    -0.043021 

 

Dipole moment calculation done in   0.1 sec 

Maximum memory used throughout the entire PROP-calculation: 230.4 MB

--------------------------------
SUGGESTED CITATIONS FOR THIS RUN
--------------------------------

Below you find a list of papers that are relevant to this ORCA run
We neither can nor want to force you to cite these papers, but we appreciate if you do
You receive ORCA, which is the product of decades of hard work by many enthusiastic individuals, for free
The only thing we kindly ask in return is that you cite our papers,
We deeply appreciate it, if you show your appreciation for ORCA by not just citing the generic ORCA reference.

Please note that relegating all ORCA citations to the supporting information does *not* help us.
SI sections are not indexed - citations you put there will not count into any citation statistics
But we need these citations in order to attract the funding resources that allow us to do what we are doing

Therefore, if you are a happy ORCA user, please consider citing a few of the papers listed below in the main body of your paper

In addition to the list printed below, the program has created the file 15_1_soc.bibtex that contains the list in bibtex format
You can import this file easily into all common literature databanks and citation aid programs


List of essential papers. We consider these as the minimum necessary citations

  1. Neese,F.
     Software update: the ORCA program system, version 5.0
     WIRES Comput. Molec. Sci., 2022 12(1)e1606
     doi.org/10.1002/wcms.1606

List of papers to cite with high priority. The work reported in these papers was absolutely
necessary for this run to complete.
Our perspective: the developers of density functionals and basis sets usually get cited in chemistry papers
Good! But without the algorithms to do something with them, the functionals or basis sets would not do anything.
Hence, in our opinion, the algorithm design and method developments papers are equally worthy of getting cited

  1. Neese,F.; Olbrich,G.
     Efficient use of the resolution of the identity approximation in time-dependent density functional calculations with hybrid density functionals
     Chem. Phys. Lett., 2002 362 170-178
     doi.org/10.1016/s0009-2614(02)01053-9
  2. Neese,F.
     An improvement of the resolution of the identity approximation for the formation of the Coulomb matrix
     J. Comp. Chem., 2003 24(14)1740-1747
     doi.org/10.1002/jcc.10318
  3. Neese,F.; Wennmohs,F.; Hansen,A.; Becker,U.
     Efficient, approximate and parallel Hartree-Fock and hybrid DFT calculations. A 'chain-of-spheres' algorithm for the Hartree-Fock exchange
     Chem. Phys., 2009 356(1-3)98-109
     doi.org/10.1016/j.chemphys.2008.10.036
  4. Garcia-Rates,M.; Neese,F.
     Effect of the Solute Cavity on the Solvation Energy and its Derivatives within the Framework of the Gaussian Charge Scheme
     J. Comput. Chem., 2020 41 922-939
     doi.org/10.1002/jcc.26139
  5. Helmich-Paris,B.; de Souza,B.; Neese,F.; Izsák,R.
     An improved chain of spheres for exchange algorithm
     J. Chem. Phys., 2021 155 104109
     doi.org/doi: 10.1063/5.0058766.
  6. Neese,F.
     The SHARK Integral Generation and Digestion System
     J. Comp. Chem., 2022  1-16
     doi.org/10.1002/jcc.26942

List of suggested additional citations. These are papers that are important in the 'surrounding' of 
of this run, or papers that preceded the highly important papers. If you like your results we are grateful for a citation.

  1. Izsak,R.; Neese,F.
     An overlap fitted chain of spheres exchange method
     J. Chem. Phys., 2011 135 144105
     doi.org/10.1063/1.3646921
  2. Izsak,R.; Hansen,A.; Neese,F.
     The resolution of identity and chain of spheres approximations for the LPNO-CCSD singles Fock term
     Molec. Phys., 2012 110 2413-2417
     doi.org/10.1080/00268976.2012.687466
  3. Neese,F.
     The ORCA program system
     WIRES Comput. Molec. Sci., 2012 2(1)73-78
     doi.org/10.1002/wcms.81
  4. Izsak,R.; Neese,F.; Klopper,W.
     Robust fitting techniques in the chain of spheres approximation to the Fock exchange: The role of the complementary space
     J. Chem. Phys., 2013 139 
     doi.org/10.1063/1.4819264
  5. Neese,F.
     Software update: the ORCA program system, version 4.0
     WIRES Comput. Molec. Sci., 2018 8(1)1-6
     doi.org/10.1002/wcms.1327
  6. Neese,F.; Wennmohs,F.; Becker,U.; Riplinger,C.
     The ORCA quantum chemistry program package
     J. Chem. Phys., 2020 152 Art. No. L224108
     doi.org/10.1063/5.0004608

List of optional additional citations

  1. Neese,F.
     Approximate second-order SCF convergence for spin unrestricted wavefunctions
     Chem. Phys. Lett., 2000 325(1-3)93-98
     doi.org/10.1016/s0009-2614(00)00662-x

Timings for individual modules:

Sum of individual times          ...     4714.288 sec (=  78.571 min)
Startup calculation              ...       12.959 sec (=   0.216 min)   0.3 %
Relativistic integrals           ...        6.493 sec (=   0.108 min)   0.1 %
SCF iterations                   ...      429.450 sec (=   7.157 min)   9.1 %
Property integrals               ...       91.047 sec (=   1.517 min)   1.9 %
Property calculations            ...        9.736 sec (=   0.162 min)   0.2 %
CIS module                       ...     4164.604 sec (=  69.410 min)  88.3 %
                             ****ORCA TERMINATED NORMALLY****
TOTAL RUN TIME: 0 days 1 hours 18 minutes 34 seconds 722 msec
