 Entering Gaussian System, Link 0=g16
 Input=15_1_s1.com
 Output=15_1_s1.log
 Initial command:
 /home/software/g16-shuai/g16/l1.exe "/tmp/zgshuai_229504/g16_tmp/Gau-2203112.inp" -scrdir="/tmp/zgshuai_229504/g16_tmp/"
 Entering Link 1 = /home/software/g16-shuai/g16/l1.exe PID=   2203113.
  
 Copyright (c) 1988-2019, Gaussian, Inc.  All Rights Reserved.
  
 This is part of the Gaussian(R) 16 program.  It is based on
 the Gaussian(R) 09 system (copyright 2009, Gaussian, Inc.),
 the Gaussian(R) 03 system (copyright 2003, Gaussian, Inc.),
 the Gaussian(R) 98 system (copyright 1998, Gaussian, Inc.),
 the Gaussian(R) 94 system (copyright 1995, Gaussian, Inc.),
 the Gaussian 92(TM) system (copyright 1992, Gaussian, Inc.),
 the Gaussian 90(TM) system (copyright 1990, Gaussian, Inc.),
 the Gaussian 88(TM) system (copyright 1988, Gaussian, Inc.),
 the Gaussian 86(TM) system (copyright 1986, Carnegie Mellon
 University), and the Gaussian 82(TM) system (copyright 1983,
 Carnegie Mellon University). Gaussian is a federally registered
 trademark of Gaussian, Inc.
  
 This software contains proprietary and confidential information,
 including trade secrets, belonging to Gaussian, Inc.
  
 This software is provided under written license and may be
 used, copied, transmitted, or stored only in accord with that
 written license.
  
 The following legend is applicable only to US Government
 contracts under FAR:
  
                    RESTRICTED RIGHTS LEGEND
  
 Use, reproduction and disclosure by the US Government is
 subject to restrictions as set forth in subparagraphs (a)
 and (c) of the Commercial Computer Software - Restricted
 Rights clause in FAR 52.227-19.
  
 Gaussian, Inc.
 340 Quinnipiac St., Bldg. 40, Wallingford CT 06492
  
  
 ---------------------------------------------------------------
 Warning -- This program may not be used in any manner that
 competes with the business of Gaussian, Inc. or will provide
 assistance to any competitor of Gaussian, Inc.  The licensee
 of this program is prohibited from giving any competitor of
 Gaussian, Inc. access to this program.  By using this program,
 the user acknowledges that Gaussian, Inc. is engaged in the
 business of creating and licensing software in the field of
 computational chemistry and represents and warrants to the
 licensee that it is not a competitor of Gaussian, Inc. and that
 it will not use this program in any manner prohibited above.
 ---------------------------------------------------------------
  

 Cite this work as:
 Gaussian 16, Revision C.01,
 M. J. Frisch, G. W. Trucks, H. B. Schlegel, G. E. Scuseria, 
 M. A. Robb, J. R. Cheeseman, G. Scalmani, V. Barone, 
 G. A. Petersson, H. Nakatsuji, X. Li, M. Caricato, A. V. Marenich, 
 J. Bloino, B. G. Janesko, R. Gomperts, B. Mennucci, H. P. Hratchian, 
 J. V. Ortiz, A. F. Izmaylov, J. L. Sonnenberg, D. Williams-Young, 
 F. Ding, F. Lipparini, F. Egidi, J. Goings, B. Peng, A. Petrone, 
 T. Henderson, D. Ranasinghe, V. G. Zakrzewski, J. Gao, N. Rega, 
 G. Zheng, W. Liang, M. Hada, M. Ehara, K. Toyota, R. Fukuda, 
 J. Hasegawa, M. Ishida, T. Nakajima, Y. Honda, O. Kitao, H. Nakai, 
 T. Vreven, K. Throssell, J. A. Montgomery, Jr., J. E. Peralta, 
 F. Ogliaro, M. J. Bearpark, J. J. Heyd, E. N. Brothers, K. N. Kudin, 
 V. N. Staroverov, T. A. Keith, R. Kobayashi, J. Normand, 
 K. Raghavachari, A. P. Rendell, J. C. Burant, S. S. Iyengar, 
 J. Tomasi, M. Cossi, J. M. Millam, M. Klene, C. Adamo, R. Cammi, 
 J. W. Ochterski, R. L. Martin, K. Morokuma, O. Farkas, 
 J. B. Foresman, and D. J. Fox, Gaussian, Inc., Wallingford CT, 2019.
 
 ******************************************
 Gaussian 16:  ES64L-G16RevC.01  3-Jul-2019
                 8-Feb-2026 
 ******************************************
 %nprocshared=56
 Will use up to   56 processors via shared memory.
 %mem=120GB
 %chk=s1_opt.chk
 ----------------------------------------------------------------------
 #p td(singlet,nstate=10) opt=calcall TPSSh/def2svp scrf=solvent=CH2Cl2
  empiricaldispersion=gd3bj IOp(3/174=1000000,3/175=2238200,3/177=45290
 0,3/178=4655000) nosymm
 ----------------------------------------------------------------------
 1/10=4,18=20,19=15,26=3,38=1/1,3;
 2/9=110,12=2,15=1,17=6,18=5,40=1/2;
 3/5=43,7=101,11=9,25=1,30=1,70=2201,71=2,72=9,74=-35,124=41,140=1,174=1000000,175=2238200,177=452900,178=4655000/1,2,3,8;
 4//1;
 5/5=2,38=5,53=9/2;
 8/6=1,10=1,108=10/1;
 9/15=3,41=10,42=1,48=1,70=2/14;
 10/5=2004,20=4,31=1/2;
 11/6=1,8=1,12=-1,16=1,31=1,42=3/1,2,10;
 10/6=3,21=1,31=1/2,14;
 6/7=2,8=2,9=2,10=2,18=1/1;
 7/10=1,12=6,13=8,25=1,30=1,44=2/1,2,3,16;
 1/10=4,18=20,19=15,26=3/3(3);
 2/9=110,15=1/2;
 7/8=1,9=1,25=1,30=1,44=-1/16;
 99//99;
 2/9=110,15=1/2;
 3/5=43,7=101,11=9,25=1,30=1,70=2205,71=2,72=9,74=-35,124=41,140=1,174=1000000,175=2238200,177=452900,178=4655000/1,2,3,8;
 4/5=5,16=3,69=1/1;
 5/5=2,38=5,53=9/2;
 8/6=1,10=1,108=10/1;
 9/15=3,41=10,42=1,48=1,49=4,70=2/14;
 10/5=2004,20=4,31=1/2;
 11/6=1,8=1,12=-1,16=1,31=1,42=3/1,2,10;
 10/6=3,21=1,31=1/2,14;
 7/10=1,12=6,13=8,25=1,30=1,44=2/1,2,3,16;
 1/10=4,18=20,19=15,26=3/3(-10);
 2/9=110,15=1/2;
 6/7=2,8=2,9=2,10=2,18=1/1;
 7/8=1,9=1,25=1,30=1,44=-1/16;
 99//99;
 Leave Link    1 at Sun Feb  8 17:07:09 2026, MaxMem= 16106127360 cpu:               1.2 elap:               0.0
 (Enter /home/software/g16-shuai/g16/l101.exe)
 -----------
 test2-s1opt
 -----------
 Symbolic Z-matrix:
 Charge =  0 Multiplicity = 1
 Pt                    0.48596  -0.41134  -0.01371 
 C                     0.50197   1.53842   0.00327 
 C                    -0.70006   2.24983  -0.00819 
 C                     1.71545   2.22972   0.03112 
 C                    -0.71202   3.64781   0.00748 
 C                     1.74994   3.62732   0.04742 
 C                     0.52449   4.31664   0.03512 
 H                    -1.64389   4.21566  -0.0006 
 H                     2.69077   4.1797    0.06927 
 H                     0.53342   5.40829   0.04774 
 C                     2.5019   -0.02773   0.02128 
 C                     4.74278   0.28489   0.05575 
 H                     5.78563  -0.01723   0.06707 
 C                    -1.5234    0.00572  -0.04252 
 C                    -3.7588    0.35597  -0.07339 
 H                    -4.80649   0.07146  -0.0917 
 Cl                    0.46723  -2.86986  -0.02052 
 C                     3.90088  -2.09011   0.01775 
 H                     4.45482  -2.39675   0.91594 
 H                     2.9105   -2.56367   0.00455 
 H                     4.46939  -2.3776   -0.87773 
 C                    -2.95592  -2.03296  -0.08114 
 H                    -1.9735   -2.52287  -0.06749 
 H                    -3.53748  -2.32753   0.80356 
 H                    -3.50627  -2.31389  -0.98993 
 N                     2.80873   1.32329   0.03937 
 N                     3.70813  -0.64314   0.03178 
 N                    -2.73961  -0.58934  -0.06615 
 N                    -1.80791   1.36169  -0.03477 
 C                    -3.17112   1.58729  -0.05354 
 C                     4.17557   1.52592   0.06062 
 H                    -3.60616   2.58152  -0.05155 
 H                     4.6274    2.51254   0.07714 
 
 ITRead=  0  0  0  0  0  0  0  0  0  0  0  0  0  0  0  0  0  0  0  0
 ITRead=  0  0  0  0  0  0  0  0  0  0  0  0  0
 MicOpt= -1 -1 -1 -1 -1 -1 -1 -1 -1 -1 -1 -1 -1 -1 -1 -1 -1 -1 -1 -1
 MicOpt= -1 -1 -1 -1 -1 -1 -1 -1 -1 -1 -1 -1 -1
 NAtoms=     33 NQM=       33 NQMF=       0 NMMI=      0 NMMIF=      0
                NMic=       0 NMicF=      0.
                    Isotopes and Nuclear Properties:
 (Nuclear quadrupole moments (NQMom) in fm**2, nuclear magnetic moments (NMagM)
  in nuclear magnetons)

  Atom         1           2           3           4           5           6           7           8           9          10
 IAtWgt=         195          12          12          12          12          12          12           1           1           1
 AtmWgt= 194.9648000  12.0000000  12.0000000  12.0000000  12.0000000  12.0000000  12.0000000   1.0078250   1.0078250   1.0078250
 NucSpn=           1           0           0           0           0           0           0           1           1           1
 AtZEff=  -0.0000000  -0.0000000  -0.0000000  -0.0000000  -0.0000000  -0.0000000  -0.0000000  -0.0000000  -0.0000000  -0.0000000
 NQMom=    0.0000000   0.0000000   0.0000000   0.0000000   0.0000000   0.0000000   0.0000000   0.0000000   0.0000000   0.0000000
 NMagM=    0.6095000   0.0000000   0.0000000   0.0000000   0.0000000   0.0000000   0.0000000   2.7928460   2.7928460   2.7928460
 AtZNuc=  78.0000000   6.0000000   6.0000000   6.0000000   6.0000000   6.0000000   6.0000000   1.0000000   1.0000000   1.0000000

  Atom        11          12          13          14          15          16          17          18          19          20
 IAtWgt=          12          12           1          12          12           1          35          12           1           1
 AtmWgt=  12.0000000  12.0000000   1.0078250  12.0000000  12.0000000   1.0078250  34.9688527  12.0000000   1.0078250   1.0078250
 NucSpn=           0           0           1           0           0           1           3           0           1           1
 AtZEff=  -0.0000000  -0.0000000  -0.0000000  -0.0000000  -0.0000000  -0.0000000  -0.0000000  -0.0000000  -0.0000000  -0.0000000
 NQMom=    0.0000000   0.0000000   0.0000000   0.0000000   0.0000000   0.0000000  -8.1650000   0.0000000   0.0000000   0.0000000
 NMagM=    0.0000000   0.0000000   2.7928460   0.0000000   0.0000000   2.7928460   0.8218740   0.0000000   2.7928460   2.7928460
 AtZNuc=   6.0000000   6.0000000   1.0000000   6.0000000   6.0000000   1.0000000  17.0000000   6.0000000   1.0000000   1.0000000

  Atom        21          22          23          24          25          26          27          28          29          30
 IAtWgt=           1          12           1           1           1          14          14          14          14          12
 AtmWgt=   1.0078250  12.0000000   1.0078250   1.0078250   1.0078250  14.0030740  14.0030740  14.0030740  14.0030740  12.0000000
 NucSpn=           1           0           1           1           1           2           2           2           2           0
 AtZEff=  -0.0000000  -0.0000000  -0.0000000  -0.0000000  -0.0000000  -0.0000000  -0.0000000  -0.0000000  -0.0000000  -0.0000000
 NQMom=    0.0000000   0.0000000   0.0000000   0.0000000   0.0000000   2.0440000   2.0440000   2.0440000   2.0440000   0.0000000
 NMagM=    2.7928460   0.0000000   2.7928460   2.7928460   2.7928460   0.4037610   0.4037610   0.4037610   0.4037610   0.0000000
 AtZNuc=   1.0000000   6.0000000   1.0000000   1.0000000   1.0000000   7.0000000   7.0000000   7.0000000   7.0000000   6.0000000

  Atom        31          32          33
 IAtWgt=          12           1           1
 AtmWgt=  12.0000000   1.0078250   1.0078250
 NucSpn=           0           1           1
 AtZEff=  -0.0000000  -0.0000000  -0.0000000
 NQMom=    0.0000000   0.0000000   0.0000000
 NMagM=    0.0000000   2.7928460   2.7928460
 AtZNuc=   6.0000000   1.0000000   1.0000000
 Leave Link  101 at Sun Feb  8 17:07:09 2026, MaxMem= 16106127360 cpu:              14.6 elap:               0.3
 (Enter /home/software/g16-shuai/g16/l103.exe)

 GradGradGradGradGradGradGradGradGradGradGradGradGradGradGradGradGradGrad
 Berny optimization.
 Initialization pass.
                           ----------------------------
                           !    Initial Parameters    !
                           ! (Angstroms and Degrees)  !
 --------------------------                            --------------------------
 ! Name  Definition              Value          Derivative Info.                !
 --------------------------------------------------------------------------------
 ! R1    R(1,2)                  1.9499         calculate D2E/DX2 analytically  !
 ! R2    R(1,11)                 2.0524         calculate D2E/DX2 analytically  !
 ! R3    R(1,14)                 2.0524         calculate D2E/DX2 analytically  !
 ! R4    R(1,17)                 2.4586         calculate D2E/DX2 analytically  !
 ! R5    R(2,3)                  1.3968         calculate D2E/DX2 analytically  !
 ! R6    R(2,4)                  1.3969         calculate D2E/DX2 analytically  !
 ! R7    R(3,5)                  1.3981         calculate D2E/DX2 analytically  !
 ! R8    R(3,29)                 1.4202         calculate D2E/DX2 analytically  !
 ! R9    R(4,6)                  1.3981         calculate D2E/DX2 analytically  !
 ! R10   R(4,26)                 1.4202         calculate D2E/DX2 analytically  !
 ! R11   R(5,7)                  1.4061         calculate D2E/DX2 analytically  !
 ! R12   R(5,8)                  1.0913         calculate D2E/DX2 analytically  !
 ! R13   R(6,7)                  1.4061         calculate D2E/DX2 analytically  !
 ! R14   R(6,9)                  1.0912         calculate D2E/DX2 analytically  !
 ! R15   R(7,10)                 1.0918         calculate D2E/DX2 analytically  !
 ! R16   R(11,26)                1.3855         calculate D2E/DX2 analytically  !
 ! R17   R(11,27)                1.3542         calculate D2E/DX2 analytically  !
 ! R18   R(12,13)                1.0858         calculate D2E/DX2 analytically  !
 ! R19   R(12,27)                1.3901         calculate D2E/DX2 analytically  !
 ! R20   R(12,31)                1.3645         calculate D2E/DX2 analytically  !
 ! R21   R(14,28)                1.3542         calculate D2E/DX2 analytically  !
 ! R22   R(14,29)                1.3855         calculate D2E/DX2 analytically  !
 ! R23   R(15,16)                1.0858         calculate D2E/DX2 analytically  !
 ! R24   R(15,28)                1.3901         calculate D2E/DX2 analytically  !
 ! R25   R(15,30)                1.3645         calculate D2E/DX2 analytically  !
 ! R26   R(18,19)                1.0989         calculate D2E/DX2 analytically  !
 ! R27   R(18,20)                1.0979         calculate D2E/DX2 analytically  !
 ! R28   R(18,21)                1.099          calculate D2E/DX2 analytically  !
 ! R29   R(18,27)                1.4598         calculate D2E/DX2 analytically  !
 ! R30   R(22,23)                1.0979         calculate D2E/DX2 analytically  !
 ! R31   R(22,24)                1.0989         calculate D2E/DX2 analytically  !
 ! R32   R(22,25)                1.099          calculate D2E/DX2 analytically  !
 ! R33   R(22,28)                1.4598         calculate D2E/DX2 analytically  !
 ! R34   R(26,31)                1.3819         calculate D2E/DX2 analytically  !
 ! R35   R(29,30)                1.3819         calculate D2E/DX2 analytically  !
 ! R36   R(30,32)                1.0852         calculate D2E/DX2 analytically  !
 ! R37   R(31,33)                1.0853         calculate D2E/DX2 analytically  !
 ! A1    A(2,1,11)              78.749          calculate D2E/DX2 analytically  !
 ! A2    A(2,1,14)              78.7534         calculate D2E/DX2 analytically  !
 ! A3    A(11,1,14)            157.5024         calculate D2E/DX2 analytically  !
 ! A4    A(11,1,17)            101.2115         calculate D2E/DX2 analytically  !
 ! A5    A(14,1,17)            101.2858         calculate D2E/DX2 analytically  !
 ! A6    A(1,2,3)              120.1412         calculate D2E/DX2 analytically  !
 ! A7    A(1,2,4)              120.1436         calculate D2E/DX2 analytically  !
 ! A8    A(3,2,4)              119.715          calculate D2E/DX2 analytically  !
 ! A9    A(2,3,5)              121.0994         calculate D2E/DX2 analytically  !
 ! A10   A(2,3,29)             110.6677         calculate D2E/DX2 analytically  !
 ! A11   A(5,3,29)             128.2328         calculate D2E/DX2 analytically  !
 ! A12   A(2,4,6)              121.0895         calculate D2E/DX2 analytically  !
 ! A13   A(2,4,26)             110.6711         calculate D2E/DX2 analytically  !
 ! A14   A(6,4,26)             128.2394         calculate D2E/DX2 analytically  !
 ! A15   A(3,5,7)              117.9254         calculate D2E/DX2 analytically  !
 ! A16   A(3,5,8)              121.8381         calculate D2E/DX2 analytically  !
 ! A17   A(7,5,8)              120.2366         calculate D2E/DX2 analytically  !
 ! A18   A(4,6,7)              117.9344         calculate D2E/DX2 analytically  !
 ! A19   A(4,6,9)              121.8379         calculate D2E/DX2 analytically  !
 ! A20   A(7,6,9)              120.2277         calculate D2E/DX2 analytically  !
 ! A21   A(5,7,6)              122.2364         calculate D2E/DX2 analytically  !
 ! A22   A(5,7,10)             118.8844         calculate D2E/DX2 analytically  !
 ! A23   A(6,7,10)             118.8793         calculate D2E/DX2 analytically  !
 ! A24   A(1,11,26)            113.5775         calculate D2E/DX2 analytically  !
 ! A25   A(1,11,27)            142.1951         calculate D2E/DX2 analytically  !
 ! A26   A(26,11,27)           104.2273         calculate D2E/DX2 analytically  !
 ! A27   A(13,12,27)           121.9577         calculate D2E/DX2 analytically  !
 ! A28   A(13,12,31)           130.7135         calculate D2E/DX2 analytically  !
 ! A29   A(27,12,31)           107.3288         calculate D2E/DX2 analytically  !
 ! A30   A(1,14,28)            142.2073         calculate D2E/DX2 analytically  !
 ! A31   A(1,14,29)            113.5679         calculate D2E/DX2 analytically  !
 ! A32   A(28,14,29)           104.2247         calculate D2E/DX2 analytically  !
 ! A33   A(16,15,28)           121.9613         calculate D2E/DX2 analytically  !
 ! A34   A(16,15,30)           130.7132         calculate D2E/DX2 analytically  !
 ! A35   A(28,15,30)           107.3255         calculate D2E/DX2 analytically  !
 ! A36   A(19,18,20)           110.1326         calculate D2E/DX2 analytically  !
 ! A37   A(19,18,21)           109.4045         calculate D2E/DX2 analytically  !
 ! A38   A(19,18,27)           109.5898         calculate D2E/DX2 analytically  !
 ! A39   A(20,18,21)           110.1226         calculate D2E/DX2 analytically  !
 ! A40   A(20,18,27)           107.9723         calculate D2E/DX2 analytically  !
 ! A41   A(21,18,27)           109.5988         calculate D2E/DX2 analytically  !
 ! A42   A(23,22,24)           110.1161         calculate D2E/DX2 analytically  !
 ! A43   A(23,22,25)           110.1412         calculate D2E/DX2 analytically  !
 ! A44   A(23,22,28)           107.9725         calculate D2E/DX2 analytically  !
 ! A45   A(24,22,25)           109.4022         calculate D2E/DX2 analytically  !
 ! A46   A(24,22,28)           109.5861         calculate D2E/DX2 analytically  !
 ! A47   A(25,22,28)           109.6026         calculate D2E/DX2 analytically  !
 ! A48   A(4,26,11)            116.8586         calculate D2E/DX2 analytically  !
 ! A49   A(4,26,31)            131.9056         calculate D2E/DX2 analytically  !
 ! A50   A(11,26,31)           111.2357         calculate D2E/DX2 analytically  !
 ! A51   A(11,27,12)           111.0834         calculate D2E/DX2 analytically  !
 ! A52   A(11,27,18)           124.6098         calculate D2E/DX2 analytically  !
 ! A53   A(12,27,18)           124.3068         calculate D2E/DX2 analytically  !
 ! A54   A(14,28,15)           111.0844         calculate D2E/DX2 analytically  !
 ! A55   A(14,28,22)           124.5974         calculate D2E/DX2 analytically  !
 ! A56   A(15,28,22)           124.3182         calculate D2E/DX2 analytically  !
 ! A57   A(3,29,14)            116.8697         calculate D2E/DX2 analytically  !
 ! A58   A(3,29,30)            131.8906         calculate D2E/DX2 analytically  !
 ! A59   A(14,29,30)           111.2397         calculate D2E/DX2 analytically  !
 ! A60   A(15,30,29)           106.1257         calculate D2E/DX2 analytically  !
 ! A61   A(15,30,32)           130.8502         calculate D2E/DX2 analytically  !
 ! A62   A(29,30,32)           123.0241         calculate D2E/DX2 analytically  !
 ! A63   A(12,31,26)           106.1248         calculate D2E/DX2 analytically  !
 ! A64   A(12,31,33)           130.8296         calculate D2E/DX2 analytically  !
 ! A65   A(26,31,33)           123.0456         calculate D2E/DX2 analytically  !
 ! A66   L(2,1,17,11,-1)       179.9605         calculate D2E/DX2 analytically  !
 ! A67   L(2,1,17,11,-2)       179.6537         calculate D2E/DX2 analytically  !
 ! D1    D(11,1,2,3)          -179.9366         calculate D2E/DX2 analytically  !
 ! D2    D(11,1,2,4)            -0.1346         calculate D2E/DX2 analytically  !
 ! D3    D(14,1,2,3)             0.086          calculate D2E/DX2 analytically  !
 ! D4    D(14,1,2,4)           179.888          calculate D2E/DX2 analytically  !
 ! D5    D(2,1,11,26)            0.0755         calculate D2E/DX2 analytically  !
 ! D6    D(2,1,11,27)         -179.7801         calculate D2E/DX2 analytically  !
 ! D7    D(14,1,11,26)           0.1334         calculate D2E/DX2 analytically  !
 ! D8    D(14,1,11,27)        -179.7222         calculate D2E/DX2 analytically  !
 ! D9    D(17,1,11,26)        -179.5782         calculate D2E/DX2 analytically  !
 ! D10   D(17,1,11,27)           0.5662         calculate D2E/DX2 analytically  !
 ! D11   D(2,1,14,28)         -179.9257         calculate D2E/DX2 analytically  !
 ! D12   D(2,1,14,29)           -0.0319         calculate D2E/DX2 analytically  !
 ! D13   D(11,1,14,28)        -179.9835         calculate D2E/DX2 analytically  !
 ! D14   D(11,1,14,29)          -0.0897         calculate D2E/DX2 analytically  !
 ! D15   D(17,1,14,28)          -0.272          calculate D2E/DX2 analytically  !
 ! D16   D(17,1,14,29)         179.6218         calculate D2E/DX2 analytically  !
 ! D17   D(1,2,3,5)            179.8163         calculate D2E/DX2 analytically  !
 ! D18   D(1,2,3,29)            -0.1189         calculate D2E/DX2 analytically  !
 ! D19   D(4,2,3,5)              0.0135         calculate D2E/DX2 analytically  !
 ! D20   D(4,2,3,29)          -179.9218         calculate D2E/DX2 analytically  !
 ! D21   D(1,2,4,6)           -179.8224         calculate D2E/DX2 analytically  !
 ! D22   D(1,2,4,26)             0.1617         calculate D2E/DX2 analytically  !
 ! D23   D(3,2,4,6)             -0.0195         calculate D2E/DX2 analytically  !
 ! D24   D(3,2,4,26)           179.9645         calculate D2E/DX2 analytically  !
 ! D25   D(2,3,5,7)              0.002          calculate D2E/DX2 analytically  !
 ! D26   D(2,3,5,8)           -179.9618         calculate D2E/DX2 analytically  !
 ! D27   D(29,3,5,7)           179.9249         calculate D2E/DX2 analytically  !
 ! D28   D(29,3,5,8)            -0.0388         calculate D2E/DX2 analytically  !
 ! D29   D(2,3,29,14)            0.0862         calculate D2E/DX2 analytically  !
 ! D30   D(2,3,29,30)          179.9857         calculate D2E/DX2 analytically  !
 ! D31   D(5,3,29,14)         -179.8433         calculate D2E/DX2 analytically  !
 ! D32   D(5,3,29,30)            0.0562         calculate D2E/DX2 analytically  !
 ! D33   D(2,4,6,7)              0.0097         calculate D2E/DX2 analytically  !
 ! D34   D(2,4,6,9)            179.9955         calculate D2E/DX2 analytically  !
 ! D35   D(26,4,6,7)          -179.9713         calculate D2E/DX2 analytically  !
 ! D36   D(26,4,6,9)             0.0145         calculate D2E/DX2 analytically  !
 ! D37   D(2,4,26,11)           -0.0883         calculate D2E/DX2 analytically  !
 ! D38   D(2,4,26,31)          179.7897         calculate D2E/DX2 analytically  !
 ! D39   D(6,4,26,11)          179.8943         calculate D2E/DX2 analytically  !
 ! D40   D(6,4,26,31)           -0.2277         calculate D2E/DX2 analytically  !
 ! D41   D(3,5,7,6)             -0.0121         calculate D2E/DX2 analytically  !
 ! D42   D(3,5,7,10)          -179.9948         calculate D2E/DX2 analytically  !
 ! D43   D(8,5,7,6)            179.9523         calculate D2E/DX2 analytically  !
 ! D44   D(8,5,7,10)            -0.0304         calculate D2E/DX2 analytically  !
 ! D45   D(4,6,7,5)              0.0064         calculate D2E/DX2 analytically  !
 ! D46   D(4,6,7,10)           179.989          calculate D2E/DX2 analytically  !
 ! D47   D(9,6,7,5)           -179.9797         calculate D2E/DX2 analytically  !
 ! D48   D(9,6,7,10)             0.003          calculate D2E/DX2 analytically  !
 ! D49   D(1,11,26,4)           -0.0126         calculate D2E/DX2 analytically  !
 ! D50   D(1,11,26,31)        -179.9152         calculate D2E/DX2 analytically  !
 ! D51   D(27,11,26,4)         179.896          calculate D2E/DX2 analytically  !
 ! D52   D(27,11,26,31)         -0.0065         calculate D2E/DX2 analytically  !
 ! D53   D(1,11,27,12)         179.8667         calculate D2E/DX2 analytically  !
 ! D54   D(1,11,27,18)          -0.0453         calculate D2E/DX2 analytically  !
 ! D55   D(26,11,27,12)          0.0032         calculate D2E/DX2 analytically  !
 ! D56   D(26,11,27,18)       -179.9087         calculate D2E/DX2 analytically  !
 ! D57   D(13,12,27,11)       -179.9925         calculate D2E/DX2 analytically  !
 ! D58   D(13,12,27,18)         -0.0802         calculate D2E/DX2 analytically  !
 ! D59   D(31,12,27,11)          0.0012         calculate D2E/DX2 analytically  !
 ! D60   D(31,12,27,18)        179.9134         calculate D2E/DX2 analytically  !
 ! D61   D(13,12,31,26)        179.9878         calculate D2E/DX2 analytically  !
 ! D62   D(13,12,31,33)         -0.0119         calculate D2E/DX2 analytically  !
 ! D63   D(27,12,31,26)         -0.0051         calculate D2E/DX2 analytically  !
 ! D64   D(27,12,31,33)        179.9952         calculate D2E/DX2 analytically  !
 ! D65   D(1,14,28,15)         179.9111         calculate D2E/DX2 analytically  !
 ! D66   D(1,14,28,22)          -0.0483         calculate D2E/DX2 analytically  !
 ! D67   D(29,14,28,15)          0.0115         calculate D2E/DX2 analytically  !
 ! D68   D(29,14,28,22)       -179.9479         calculate D2E/DX2 analytically  !
 ! D69   D(1,14,29,3)           -0.0225         calculate D2E/DX2 analytically  !
 ! D70   D(1,14,29,30)        -179.9422         calculate D2E/DX2 analytically  !
 ! D71   D(28,14,29,3)         179.9104         calculate D2E/DX2 analytically  !
 ! D72   D(28,14,29,30)         -0.0094         calculate D2E/DX2 analytically  !
 ! D73   D(16,15,28,14)       -179.9962         calculate D2E/DX2 analytically  !
 ! D74   D(16,15,28,22)         -0.0366         calculate D2E/DX2 analytically  !
 ! D75   D(30,15,28,14)         -0.0097         calculate D2E/DX2 analytically  !
 ! D76   D(30,15,28,22)        179.9498         calculate D2E/DX2 analytically  !
 ! D77   D(16,15,30,29)        179.9883         calculate D2E/DX2 analytically  !
 ! D78   D(16,15,30,32)         -0.0244         calculate D2E/DX2 analytically  !
 ! D79   D(28,15,30,29)          0.0035         calculate D2E/DX2 analytically  !
 ! D80   D(28,15,30,32)        179.9908         calculate D2E/DX2 analytically  !
 ! D81   D(19,18,27,11)       -120.3429         calculate D2E/DX2 analytically  !
 ! D82   D(19,18,27,12)         59.7566         calculate D2E/DX2 analytically  !
 ! D83   D(20,18,27,11)         -0.3742         calculate D2E/DX2 analytically  !
 ! D84   D(20,18,27,12)        179.7252         calculate D2E/DX2 analytically  !
 ! D85   D(21,18,27,11)        119.5876         calculate D2E/DX2 analytically  !
 ! D86   D(21,18,27,12)        -60.313          calculate D2E/DX2 analytically  !
 ! D87   D(23,22,28,14)          0.131          calculate D2E/DX2 analytically  !
 ! D88   D(23,22,28,15)       -179.8231         calculate D2E/DX2 analytically  !
 ! D89   D(24,22,28,14)        120.0776         calculate D2E/DX2 analytically  !
 ! D90   D(24,22,28,15)        -59.8765         calculate D2E/DX2 analytically  !
 ! D91   D(25,22,28,14)       -119.8556         calculate D2E/DX2 analytically  !
 ! D92   D(25,22,28,15)         60.1903         calculate D2E/DX2 analytically  !
 ! D93   D(4,26,31,12)        -179.8759         calculate D2E/DX2 analytically  !
 ! D94   D(4,26,31,33)           0.1239         calculate D2E/DX2 analytically  !
 ! D95   D(11,26,31,12)          0.0074         calculate D2E/DX2 analytically  !
 ! D96   D(11,26,31,33)       -179.9929         calculate D2E/DX2 analytically  !
 ! D97   D(3,29,30,15)        -179.9001         calculate D2E/DX2 analytically  !
 ! D98   D(3,29,30,32)           0.1113         calculate D2E/DX2 analytically  !
 ! D99   D(14,29,30,15)          0.0037         calculate D2E/DX2 analytically  !
 ! D100  D(14,29,30,32)       -179.9848         calculate D2E/DX2 analytically  !
 --------------------------------------------------------------------------------
 Trust Radius=3.00D-01 FncErr=1.00D-07 GrdErr=1.00D-06 EigMax=2.50D+02 EigMin=1.00D-04
 Number of steps in this run=    198 maximum allowed number of steps=    198.
 GradGradGradGradGradGradGradGradGradGradGradGradGradGradGradGradGradGrad

 Leave Link  103 at Sun Feb  8 17:07:09 2026, MaxMem= 16106127360 cpu:               0.5 elap:               0.0
 (Enter /home/software/g16-shuai/g16/l202.exe)
                          Input orientation:                          
 ---------------------------------------------------------------------
 Center     Atomic      Atomic             Coordinates (Angstroms)
 Number     Number       Type             X           Y           Z
 ---------------------------------------------------------------------
      1         78           0        0.485960   -0.411340   -0.013710
      2          6           0        0.501970    1.538420    0.003270
      3          6           0       -0.700060    2.249830   -0.008190
      4          6           0        1.715450    2.229720    0.031120
      5          6           0       -0.712020    3.647810    0.007480
      6          6           0        1.749940    3.627320    0.047420
      7          6           0        0.524490    4.316640    0.035120
      8          1           0       -1.643890    4.215660   -0.000600
      9          1           0        2.690770    4.179700    0.069270
     10          1           0        0.533420    5.408290    0.047740
     11          6           0        2.501900   -0.027730    0.021280
     12          6           0        4.742780    0.284890    0.055750
     13          1           0        5.785630   -0.017230    0.067070
     14          6           0       -1.523400    0.005720   -0.042520
     15          6           0       -3.758800    0.355970   -0.073390
     16          1           0       -4.806490    0.071460   -0.091700
     17         17           0        0.467230   -2.869860   -0.020520
     18          6           0        3.900880   -2.090110    0.017750
     19          1           0        4.454820   -2.396750    0.915940
     20          1           0        2.910500   -2.563670    0.004550
     21          1           0        4.469390   -2.377600   -0.877730
     22          6           0       -2.955920   -2.032960   -0.081140
     23          1           0       -1.973500   -2.522870   -0.067490
     24          1           0       -3.537480   -2.327530    0.803560
     25          1           0       -3.506270   -2.313890   -0.989930
     26          7           0        2.808730    1.323290    0.039370
     27          7           0        3.708130   -0.643140    0.031780
     28          7           0       -2.739610   -0.589340   -0.066150
     29          7           0       -1.807910    1.361690   -0.034770
     30          6           0       -3.171120    1.587290   -0.053540
     31          6           0        4.175570    1.525920    0.060620
     32          1           0       -3.606160    2.581520   -0.051550
     33          1           0        4.627400    2.512540    0.077140
 ---------------------------------------------------------------------
                    Distance matrix (angstroms):
                    1          2          3          4          5
     1  Pt   0.000000
     2  C    1.949900   0.000000
     3  C    2.913503   1.396822   0.000000
     4  C    2.913564   1.396855   2.415914   0.000000
     5  C    4.232293   2.433786   1.398119   2.811432   0.000000
     6  C    4.232276   2.433697   2.811240   1.398121   2.462369
     7  C    4.728389   2.778494   2.402728   2.402839   1.406078
     8  H    5.093679   3.431085   2.180679   3.902580   1.091284
     9  H    5.093694   3.430971   3.902323   2.180625   3.444663
    10  H    5.820148   3.870253   3.391234   3.391280   2.156857
    11  C    2.052412   2.540250   3.929465   2.390540   4.882527
    12  C    4.313940   4.422506   5.787019   3.598291   6.408307
    13  H    5.314918   5.508283   6.870910   4.649349   7.460263
    14  C    2.052388   2.540352   2.390627   3.929599   3.731710
    15  C    4.313967   4.422468   3.598173   5.786992   4.486159
    16  H    5.314998   5.508243   4.649197   6.870871   5.437352
    17  Cl   2.458601   4.408481   5.251090   5.250375   6.623552
    18  C    3.805383   4.971823   6.324903   4.841200   7.362247
    19  H    4.534088   5.651863   7.001251   5.448970   8.003639
    20  H    3.242106   4.756907   6.017149   4.940186   7.190629
    21  H    4.525530   5.643739   6.992312   5.444042   7.996010
    22  C    3.805356   4.971809   4.841128   6.324930   6.108526
    23  H    3.241974   4.756788   4.940023   6.017075   6.298749
    24  H    4.530760   5.648291   5.446294   6.997033   6.657451
    25  H    4.528863   5.647365   5.446666   6.996663   6.659169
    26  N    2.899486   2.317051   3.629373   1.420192   4.219015
    27  N    3.230817   3.878077   5.272856   3.496298   6.160403
    28  N    3.230903   3.878147   3.496285   5.272961   4.697870
    29  N    2.899296   2.316943   1.420152   3.629309   2.535568
    30  C    4.167774   3.673854   2.558741   4.929346   3.208838
    31  C    4.167940   3.674069   4.929559   2.558983   5.328581
    32  H    5.069920   4.238844   2.925289   5.333866   3.084883
    33  H    5.070390   4.239521   5.334616   2.926014   5.459221
                    6          7          8          9         10
     6  C    0.000000
     7  C    1.406073   0.000000
     8  H    3.444783   2.171024   0.000000
     9  H    1.091220   2.170873   4.335372   0.000000
    10  H    2.156797   1.091759   2.483019   2.482752   0.000000
    11  C    3.731691   4.773248   5.932488   4.211940   5.781516
    12  C    4.486535   5.835187   7.499579   4.402326   6.630837
    13  H    5.437824   6.816381   8.551006   5.214632   7.551315
    14  C    4.882502   4.773250   4.211872   5.932439   5.781558
    15  C    6.408006   5.834831   4.401744   7.499214   6.630518
    16  H    7.459911   6.815936   5.213898   8.550582   7.550883
    17  Cl   6.622938   7.186943   7.393363   7.392462   8.278696
    18  C    6.108717   7.242013   8.396877   6.385729   8.219896
    19  H    6.660339   7.828981   9.042028   6.861371   8.777801
    20  H    6.298976   7.282352   8.167118   6.747259   8.318925
    21  H    6.656604   7.823578   9.033971   6.859918   8.773166
    22  C    7.362093   7.241836   6.385387   8.396718   8.219751
    23  H    7.190414   7.282127   6.746918   8.166919   8.318727
    24  H    7.999300   7.825286   6.858986   9.037385   8.774190
    25  H    8.000113   7.826984   6.861651   9.038358   8.776555
    26  N    2.535676   3.765357   5.309729   2.859001   4.675931
    27  N    4.698040   5.893640   7.228631   4.929119   6.833655
    28  N    6.160290   5.893492   4.928785   7.228493   6.833539
    29  N    4.218783   3.765196   2.858884   5.309437   4.675853
    30  C    5.328109   4.595078   3.040323   6.410727   5.322961
    31  C    3.209320   4.595558   6.411284   3.040930   5.323365
    32  H    5.458141   4.481118   2.554117   6.497700   5.013642
    33  H    3.086000   4.482233   6.498903   2.555390   5.014669
                   11         12         13         14         15
    11  C    0.000000
    12  C    2.262844   0.000000
    13  H    3.284066   1.085790   0.000000
    14  C    4.025945   6.273165   7.309888   0.000000
    15  C    6.273161   8.502858   9.552756   2.262883   0.000000
    16  H    7.309936   9.552793  10.593681   3.284116   1.085788
    17  Cl   3.495616   5.314000   6.035772   3.497435   5.316776
    18  C    2.492101   2.520092   2.802061   5.815406   8.041288
    19  H    3.197901   2.830908   2.855477   6.513802   8.718933
    20  H    2.568701   3.387354   3.841177   5.124788   7.280792
    21  H    3.193920   2.834604   2.862950   6.503178   8.707610
    22  C    5.815431   8.041216   8.972170   2.491951   2.520251
    23  H    5.124725   7.280599   8.154780   2.568459   3.387484
    24  H    6.509620   8.714738   9.633290   3.196314   2.831819
    25  H    6.507471   8.711712   9.629709   3.195301   2.834073
    26  N    1.385542   2.195243   3.264919   4.528802   6.639343
    27  N    1.354190   1.390077   2.170026   5.272139   7.534210
    28  N    5.272236   7.534275   8.545453   1.354187   1.390112
    29  N    4.528586   6.639219   7.718396   1.385518   2.195208
    30  C    5.898902   8.021097   9.100132   2.283958   1.364519
    31  C    2.283976   1.364517   2.230167   5.899144   8.021282
    32  H    6.642431   8.659724   9.745424   3.312509   2.230885
    33  H    3.312679   2.230739   2.782325   6.643102   8.660358
                   16         17         18         19         20
    16  H    0.000000
    17  Cl   6.038920   0.000000
    18  C    8.972327   3.521282   0.000000
    19  H    9.637389   4.123307   1.098919   0.000000
    20  H    8.155066   2.462509   1.097855   1.800949   0.000000
    21  H    9.625886   4.122428   1.098972   1.793831   1.800883
    22  C    2.802375   3.524490   6.857751   7.486360   5.891000
    23  H    3.841480   2.465719   5.890916   6.504332   4.884702
    24  H    2.857802   4.124431   7.483520   7.993390   6.501586
    25  H    2.861343   4.127658   7.478728   8.186462   6.498178
    26  N    7.718538   4.802990   3.583931   4.161332   3.888448
    27  N    8.545446   3.932486   1.459819   2.101055   2.079757
    28  N    2.170093   3.935311   6.808484   7.482717   5.985543
    29  N    3.264876   4.804423   6.671429   7.365562   6.137865
    30  C    2.230164   5.753683   7.971295   8.658373   7.363419
    31  C    9.100333   5.751630   3.626702   4.024536   4.281155
    32  H    2.782590   6.805220   8.842204   9.523582   8.303191
    33  H    9.746059   6.803439   4.660016   4.983422   5.359191
                   21         22         23         24         25
    21  H    0.000000
    22  C    7.475865   0.000000
    23  H    6.495262   1.097883   0.000000
    24  H    8.181639   1.098944   1.800811   0.000000
    25  H    7.976704   1.098957   1.801097   1.793813   0.000000
    26  N    4.158780   6.671591   6.137922   7.361172   7.359875
    27  N    2.101208   6.808371   5.985329   7.478748   7.475484
    28  N    7.471694   1.459813   2.079775   2.101023   2.101240
    29  N    7.355091   3.583814   3.888225   4.159874   4.160126
    30  C    8.647372   3.626745   4.281110   4.024258   4.025960
    31  C    4.025456   7.971441   7.363435   8.654027   8.652078
    32  H    9.512621   4.660162   5.359163   4.983443   4.985536
    33  H    4.984999   8.842701   8.303502   9.519413   9.517860
                   26         27         28         29         30
    26  N    0.000000
    27  N    2.162366   0.000000
    28  N    5.869699   6.448708   0.000000
    29  N    4.617395   5.869452   2.162306   0.000000
    30  C    5.986396   7.232301   2.219026   1.381879   0.000000
    31  C    1.381941   2.219043   7.232573   5.986493   7.347833
    32  H    6.537754   7.994011   3.287168   2.173009   1.085245
    33  H    2.173316   3.287162   7.994687   6.538363   7.854303
                   31         32         33
    31  C    0.000000
    32  H    7.853801   0.000000
    33  H    1.085284   8.234855   0.000000
 Symmetry turned off by external request.
 Stoichiometry    C14H13ClN4Pt
 Framework group  C1[X(C14H13ClN4Pt)]
 Deg. of freedom    93
 Full point group                 C1      NOp   1
 Rotational constants (GHZ):           0.3754590           0.2763556           0.1595135
 Leave Link  202 at Sun Feb  8 17:07:09 2026, MaxMem= 16106127360 cpu:               0.1 elap:               0.0
 (Enter /home/software/g16-shuai/g16/l301.exe)
 Standard basis: def2SVP (5D, 7F)
 Ernie: Thresh=  0.10000D-02 Tol=  0.10000D-05 Strict=F.
   367 basis functions,   643 primitive gaussians,   391 cartesian basis functions
    80 alpha electrons       80 beta electrons
       nuclear repulsion energy      1853.6986529426 Hartrees.
 IExCor= 2523 DFT=T Ex+Corr=TPSSh ExCW=0 ScaHFX=  0.100000
 ScaDFX=  0.900000  0.900000  1.000000  1.000000 ScalE2=  1.000000  1.000000
 IRadAn=      5 IRanWt=     -1 IRanGd=            0 ICorTp=0 IEmpDi=141
 NAtoms=   33 NActive=   33 NUniq=   33 SFac= 1.00D+00 NAtFMM=   60 NAOKFM=F Big=F
 Integral buffers will be    131072 words long.
 Regular integral format.
 Two-electron integral symmetry is turned off.
 R6DIni: Non-standard D2/D3 S6 parameter, value=     1.000000
 R6DIni: Non-standard D2/D3 S8 parameter, value=     2.238200
 R6DIni: Non-standard D3BJ A1 parameter, value=     0.452900
 R6DIni: Non-standard D3BJ A2 parameter, value=     4.655000
 R6Disp:  Grimme-D3(BJ) Dispersion energy=       -0.0619815742 Hartrees.
 Nuclear repulsion after empirical dispersion term =     1853.6366713683 Hartrees.
 Force inversion solution in PCM.
 ------------------------------------------------------------------------------
 Polarizable Continuum Model (PCM)
 =================================
 Model                : PCM.
 Atomic radii         : UFF (Universal Force Field).
 Polarization charges : Total charges.
 Charge compensation  : None.
 Solution method      : Matrix inversion.
 Cavity type          : Scaled VdW (van der Waals Surface) (Alpha=1.100).
 Cavity algorithm     : GePol (No added spheres)
                        Default sphere list used, NSphG=   33.
                        Lebedev-Laikov grids with approx.  5.0 points / Ang**2.
                        Smoothing algorithm: York/Karplus (Gamma=1.0000).
                        Polarization charges: spherical gaussians, with
                                              point-specific exponents (IZeta= 3).
                        Self-potential: point-specific (ISelfS= 7).
                        Self-field    : sphere-specific E.n sum rule (ISelfD= 2).
 1st derivatives      : Analytical E(r).r(x)/FMM algorithm (CHGder, D1EAlg=3).
                        Cavity 1st derivative terms included.
 2nd derivatives      : Analytical E(r).r(xy)/FMM algorithm (CHGder, D2EAlg=3).
                        Cavity 2nd derivative terms included.
 Solvent              : Dichloromethane, Eps=   8.930000 Eps(inf)=   2.028346
 ------------------------------------------------------------------------------
 GePol: Number of generator spheres                  =      33
 GePol: Total number of spheres                      =      33
 GePol: Number of exposed spheres                    =      33 (100.00%)
 GePol: Number of points                             =    2564
 GePol: Average weight of points                     =       0.13
 GePol: Minimum weight of points                     =   0.16D-08
 GePol: Maximum weight of points                     =    0.21838
 GePol: Number of points with low weight             =     150
 GePol: Fraction of low-weight points (<1% of avg)   =       5.85%
 GePol: Cavity surface area                          =    342.517 Ang**2
 GePol: Cavity volume                                =    376.613 Ang**3
 Leave Link  301 at Sun Feb  8 17:07:09 2026, MaxMem= 16106127360 cpu:               2.4 elap:               0.1
 (Enter /home/software/g16-shuai/g16/l302.exe)
 NPDir=0 NMtPBC=     1 NCelOv=     1 NCel=       1 NClECP=     1 NCelD=      1
         NCelK=      1 NCelE2=     1 NClLst=     1 CellRange=     0.0.
 One-electron integrals computed using PRISM.
   1 Symmetry operations used in ECPInt.
 ECPInt:  NShTT=   14028 NPrTT=   51030 LenC2=   12720 LenP2D=   32483.
 LDataN:  DoStor=T MaxTD1= 8 Len=  415
 NBasis=   367 RedAO= T EigKep=  2.15D-04  NBF=   367
 NBsUse=   367 1.00D-06 EigRej= -1.00D+00 NBFU=   367
 Precomputing XC quadrature grid using
 IXCGrd= 4 IRadAn=           5 IRanWt=          -1 IRanGd=           0 AccXCQ= 0.00D+00.
 Defaulting to unpruned grid for atomic number  78.
 Generated NRdTot=       0 NPtTot=           0 NUsed=           0 NTot=          32
 NSgBfM=   389   389   389   389   389 MxSgAt=    33 MxSgA2=    33.
 Leave Link  302 at Sun Feb  8 17:07:09 2026, MaxMem= 16106127360 cpu:              18.8 elap:               0.4
 (Enter /home/software/g16-shuai/g16/l303.exe)
 DipDrv:  MaxL=1.
 Leave Link  303 at Sun Feb  8 17:07:09 2026, MaxMem= 16106127360 cpu:               1.8 elap:               0.0
 (Enter /home/software/g16-shuai/g16/l308.exe)
 Leave Link  308 at Sun Feb  8 17:07:10 2026, MaxMem= 16106127360 cpu:               2.3 elap:               0.1
 (Enter /home/software/g16-shuai/g16/l401.exe)
 ExpMin= 4.90D-02 ExpMax= 1.04D+04 ExpMxC= 1.57D+03 IAcc=3 IRadAn=         5 AccDes= 0.00D+00
 Harris functional with IExCor= 1009 and IRadAn=       5 diagonalized for initial guess.
 HarFok:  IExCor= 1009 AccDes= 0.00D+00 IRadAn=         5 IDoV= 1 UseB2=F ITyADJ=14
 ICtDFT=  3500011 ScaDFX=  1.000000  1.000000  1.000000  1.000000
 Defaulting to unpruned grid for atomic number  78.
 FoFCou: FMM=F IPFlag=           0 FMFlag=      100000 FMFlg1=           0
         NFxFlg=           0 DoJE=T BraDBF=F KetDBF=T FulRan=T
         wScrn=  0.000000 ICntrl=       500 IOpCl=  0 I1Cent=   200000004 NGrid=           0
         NMat0=    1 NMatS0=      1 NMatT0=    0 NMatD0=    1 NMtDS0=    0 NMtDT0=    0
 Symmetry not used in FoFCou.
 Harris En= -1338.24108410541    
 JPrj=0 DoOrth=F DoCkMO=F.
 Leave Link  401 at Sun Feb  8 17:07:10 2026, MaxMem= 16106127360 cpu:              34.8 elap:               0.7
 (Enter /home/software/g16-shuai/g16/l502.exe)
 Two-electron integral symmetry not used.
 Closed shell SCF:
 Using DIIS extrapolation, IDIIS=  1040.
 NGot= 16106127360 LenX= 16105795799 LenY= 16105642477
 Requested convergence on RMS density matrix=1.00D-08 within 128 cycles.
 Requested convergence on MAX density matrix=1.00D-06.
 Requested convergence on             energy=1.00D-06.
 No special actions if energy rises.
 Fock matrices will be formed incrementally for  20 cycles.

 Cycle   1  Pass 1  IDiag  1:
 FoFJK:  IHMeth= 1 ICntrl=       0 DoSepK=F KAlg= 0 I1Cent=           0 FoldK=F
 IRaf= 850000000 NMat=       1 IRICut=       1 DoRegI=T DoRafI=F ISym2E= 0 IDoP0=0 IntGTp=1.
 FoFCou: FMM=F IPFlag=           0 FMFlag=      100000 FMFlg1=           0
         NFxFlg=           0 DoJE=F BraDBF=F KetDBF=F FulRan=T
         wScrn=  0.000000 ICntrl=         0 IOpCl=  0 I1Cent=           0 NGrid=           0
         NMat0=    1 NMatS0=      1 NMatT0=    0 NMatD0=    1 NMtDS0=    0 NMtDT0=    0
 Symmetry not used in FoFCou.
 Defaulting to unpruned grid for atomic number  78.
 Defaulting to unpruned grid for atomic number  78.
 Defaulting to unpruned grid for atomic number  78.
 Defaulting to unpruned grid for atomic number  78.
 Defaulting to unpruned grid for atomic number  78.
 Defaulting to unpruned grid for atomic number  78.
 Defaulting to unpruned grid for atomic number  78.
 Defaulting to unpruned grid for atomic number  78.
 Defaulting to unpruned grid for atomic number  78.
 Defaulting to unpruned grid for atomic number  78.
 Defaulting to unpruned grid for atomic number  78.
 Defaulting to unpruned grid for atomic number  78.
 Defaulting to unpruned grid for atomic number  78.
 Defaulting to unpruned grid for atomic number  78.
 Defaulting to unpruned grid for atomic number  78.
 Defaulting to unpruned grid for atomic number  78.
 Defaulting to unpruned grid for atomic number  78.
 Defaulting to unpruned grid for atomic number  78.
 Defaulting to unpruned grid for atomic number  78.
 Defaulting to unpruned grid for atomic number  78.
 Defaulting to unpruned grid for atomic number  78.
 Defaulting to unpruned grid for atomic number  78.
 Defaulting to unpruned grid for atomic number  78.
 Defaulting to unpruned grid for atomic number  78.
 Defaulting to unpruned grid for atomic number  78.
 Defaulting to unpruned grid for atomic number  78.
 Defaulting to unpruned grid for atomic number  78.
 Defaulting to unpruned grid for atomic number  78.
 Defaulting to unpruned grid for atomic number  78.
 Defaulting to unpruned grid for atomic number  78.
 Defaulting to unpruned grid for atomic number  78.
 Defaulting to unpruned grid for atomic number  78.
 Defaulting to unpruned grid for atomic number  78.
 Defaulting to unpruned grid for atomic number  78.
 Defaulting to unpruned grid for atomic number  78.
 Defaulting to unpruned grid for atomic number  78.
 Defaulting to unpruned grid for atomic number  78.
 Defaulting to unpruned grid for atomic number  78.
 Defaulting to unpruned grid for atomic number  78.
 Defaulting to unpruned grid for atomic number  78.
 Defaulting to unpruned grid for atomic number  78.
 Defaulting to unpruned grid for atomic number  78.
 Defaulting to unpruned grid for atomic number  78.
 Defaulting to unpruned grid for atomic number  78.
 Defaulting to unpruned grid for atomic number  78.
 Defaulting to unpruned grid for atomic number  78.
 Defaulting to unpruned grid for atomic number  78.
 Defaulting to unpruned grid for atomic number  78.
 Defaulting to unpruned grid for atomic number  78.
 Defaulting to unpruned grid for atomic number  78.
 Defaulting to unpruned grid for atomic number  78.
 Defaulting to unpruned grid for atomic number  78.
 Defaulting to unpruned grid for atomic number  78.
 Defaulting to unpruned grid for atomic number  78.
 Defaulting to unpruned grid for atomic number  78.
 Defaulting to unpruned grid for atomic number  78.
 Inv3:  Mode=1 IEnd=    19722288.
 Iteration    1 A*A^-1 deviation from unit magnitude is 4.33D-15 for   2555.
 Iteration    1 A*A^-1 deviation from orthogonality  is 1.83D-15 for   2563   2479.
 Iteration    1 A^-1*A deviation from unit magnitude is 4.55D-15 for   2555.
 Iteration    1 A^-1*A deviation from orthogonality  is 2.12D-15 for   2563   2479.
 E= -1338.39783401988    
 DIIS: error= 6.51D-02 at cycle   1 NSaved=   1.
 NSaved= 1 IEnMin= 1 EnMin= -1338.39783401988     IErMin= 1 ErrMin= 6.51D-02
 ErrMax= 6.51D-02  0.00D+00 EMaxC= 1.00D-01 BMatC= 1.13D+00 BMatP= 1.13D+00
 IDIUse=3 WtCom= 3.49D-01 WtEn= 6.51D-01
 Coeff-Com:  0.100D+01
 Coeff-En:   0.100D+01
 Coeff:      0.100D+01
 Gap=     0.665 Goal=   None    Shift=    0.000
 GapD=    0.665 DampG=2.000 DampE=0.250 DampFc=0.5000 IDamp=-1.
 Damping current iteration by 5.00D-01
 RMSDP=1.18D-02 MaxDP=9.54D-01              OVMax= 7.34D-01

 Cycle   2  Pass 1  IDiag  1:
 RMSU=  5.92D-03    CP:  1.00D+00
 E= -1338.37064758813     Delta-E=        0.027186431746 Rises=F Damp=T
 DIIS: error= 2.25D-02 at cycle   2 NSaved=   2.
 NSaved= 2 IEnMin= 1 EnMin= -1338.39783401988     IErMin= 2 ErrMin= 2.25D-02
 ErrMax= 2.25D-02  0.00D+00 EMaxC= 1.00D-01 BMatC= 2.56D-01 BMatP= 1.13D+00
 IDIUse=3 WtCom= 7.75D-01 WtEn= 2.25D-01
 Coeff-Com:  0.283D+00 0.717D+00
 Coeff-En:   0.509D+00 0.491D+00
 Coeff:      0.334D+00 0.666D+00
 Gap=     0.059 Goal=   None    Shift=    0.000
 RMSDP=5.46D-03 MaxDP=4.14D-01 DE= 2.72D-02 OVMax= 6.24D-01

 Cycle   3  Pass 1  IDiag  1:
 RMSU=  3.48D-03    CP:  9.68D-01  2.97D-01
 E= -1339.23517711222     Delta-E=       -0.864529524088 Rises=F Damp=F
 DIIS: error= 2.20D-02 at cycle   3 NSaved=   3.
 NSaved= 3 IEnMin= 3 EnMin= -1339.23517711222     IErMin= 3 ErrMin= 2.20D-02
 ErrMax= 2.20D-02  0.00D+00 EMaxC= 1.00D-01 BMatC= 1.67D-01 BMatP= 2.56D-01
 IDIUse=3 WtCom= 7.80D-01 WtEn= 2.20D-01
 Coeff-Com:  0.181D+00 0.412D+00 0.407D+00
 Coeff-En:   0.554D-01 0.000D+00 0.945D+00
 Coeff:      0.154D+00 0.321D+00 0.526D+00
 Gap=     0.181 Goal=   None    Shift=    0.000
 RMSDP=2.20D-03 MaxDP=1.26D-01 DE=-8.65D-01 OVMax= 1.43D-01

 Cycle   4  Pass 1  IDiag  1:
 RMSU=  1.90D-03    CP:  9.69D-01  2.49D-01  6.91D-01
 E= -1339.35109980595     Delta-E=       -0.115922693728 Rises=F Damp=F
 DIIS: error= 1.36D-02 at cycle   4 NSaved=   4.
 NSaved= 4 IEnMin= 4 EnMin= -1339.35109980595     IErMin= 4 ErrMin= 1.36D-02
 ErrMax= 1.36D-02  0.00D+00 EMaxC= 1.00D-01 BMatC= 6.99D-02 BMatP= 1.67D-01
 IDIUse=3 WtCom= 8.64D-01 WtEn= 1.36D-01
 Coeff-Com:  0.159D-01 0.925D-01 0.363D+00 0.529D+00
 Coeff-En:   0.000D+00 0.000D+00 0.310D+00 0.690D+00
 Coeff:      0.137D-01 0.799D-01 0.356D+00 0.550D+00
 Gap=     0.141 Goal=   None    Shift=    0.000
 RMSDP=1.05D-03 MaxDP=6.47D-02 DE=-1.16D-01 OVMax= 6.77D-02

 Cycle   5  Pass 1  IDiag  1:
 RMSU=  5.50D-04    CP:  9.68D-01  2.82D-01  8.38D-01  6.32D-01
 E= -1339.41373418395     Delta-E=       -0.062634378003 Rises=F Damp=F
 DIIS: error= 3.60D-03 at cycle   5 NSaved=   5.
 NSaved= 5 IEnMin= 5 EnMin= -1339.41373418395     IErMin= 5 ErrMin= 3.60D-03
 ErrMax= 3.60D-03  0.00D+00 EMaxC= 1.00D-01 BMatC= 7.18D-03 BMatP= 6.99D-02
 IDIUse=3 WtCom= 9.64D-01 WtEn= 3.60D-02
 Coeff-Com: -0.529D-02 0.113D-01 0.167D+00 0.347D+00 0.480D+00
 Coeff-En:   0.000D+00 0.000D+00 0.000D+00 0.766D-01 0.923D+00
 Coeff:     -0.510D-02 0.109D-01 0.161D+00 0.337D+00 0.496D+00
 Gap=     0.141 Goal=   None    Shift=    0.000
 RMSDP=3.25D-04 MaxDP=1.80D-02 DE=-6.26D-02 OVMax= 2.19D-02

 Cycle   6  Pass 1  IDiag  1:
 RMSU=  1.58D-04    CP:  9.68D-01  2.75D-01  8.16D-01  6.96D-01  5.64D-01
 E= -1339.42022633188     Delta-E=       -0.006492147933 Rises=F Damp=F
 DIIS: error= 1.57D-03 at cycle   6 NSaved=   6.
 NSaved= 6 IEnMin= 6 EnMin= -1339.42022633188     IErMin= 6 ErrMin= 1.57D-03
 ErrMax= 1.57D-03  0.00D+00 EMaxC= 1.00D-01 BMatC= 6.24D-04 BMatP= 7.18D-03
 IDIUse=3 WtCom= 9.84D-01 WtEn= 1.57D-02
 Coeff-Com: -0.260D-02-0.206D-02 0.542D-01 0.134D+00 0.292D+00 0.525D+00
 Coeff-En:   0.000D+00 0.000D+00 0.000D+00 0.000D+00 0.451D-01 0.955D+00
 Coeff:     -0.256D-02-0.203D-02 0.533D-01 0.132D+00 0.288D+00 0.532D+00
 Gap=     0.140 Goal=   None    Shift=    0.000
 RMSDP=9.61D-05 MaxDP=4.55D-03 DE=-6.49D-03 OVMax= 8.03D-03

 Cycle   7  Pass 1  IDiag  1:
 RMSU=  5.29D-05    CP:  9.68D-01  2.74D-01  8.21D-01  6.89D-01  6.37D-01
                    CP:  5.90D-01
 E= -1339.42077030892     Delta-E=       -0.000543977041 Rises=F Damp=F
 DIIS: error= 4.42D-04 at cycle   7 NSaved=   7.
 NSaved= 7 IEnMin= 7 EnMin= -1339.42077030892     IErMin= 7 ErrMin= 4.42D-04
 ErrMax= 4.42D-04  0.00D+00 EMaxC= 1.00D-01 BMatC= 8.45D-05 BMatP= 6.24D-04
 IDIUse=3 WtCom= 9.96D-01 WtEn= 4.42D-03
 Coeff-Com: -0.480D-03-0.204D-02 0.111D-01 0.325D-01 0.105D+00 0.324D+00
 Coeff-Com:  0.529D+00
 Coeff-En:   0.000D+00 0.000D+00 0.000D+00 0.000D+00 0.000D+00 0.106D+00
 Coeff-En:   0.894D+00
 Coeff:     -0.478D-03-0.203D-02 0.110D-01 0.324D-01 0.105D+00 0.323D+00
 Coeff:      0.531D+00
 Gap=     0.140 Goal=   None    Shift=    0.000
 RMSDP=2.76D-05 MaxDP=1.46D-03 DE=-5.44D-04 OVMax= 2.33D-03

 Cycle   8  Pass 1  IDiag  1:
 RMSU=  1.80D-05    CP:  9.68D-01  2.74D-01  8.22D-01  6.89D-01  6.27D-01
                    CP:  6.53D-01  6.75D-01
 E= -1339.42084560566     Delta-E=       -0.000075296735 Rises=F Damp=F
 DIIS: error= 1.07D-04 at cycle   8 NSaved=   8.
 NSaved= 8 IEnMin= 8 EnMin= -1339.42084560566     IErMin= 8 ErrMin= 1.07D-04
 ErrMax= 1.07D-04  0.00D+00 EMaxC= 1.00D-01 BMatC= 7.74D-06 BMatP= 8.45D-05
 IDIUse=3 WtCom= 9.99D-01 WtEn= 1.07D-03
 Coeff-Com:  0.209D-04-0.940D-03 0.272D-02 0.821D-02 0.359D-01 0.141D+00
 Coeff-Com:  0.310D+00 0.504D+00
 Coeff-En:   0.000D+00 0.000D+00 0.000D+00 0.000D+00 0.000D+00 0.000D+00
 Coeff-En:   0.838D-02 0.992D+00
 Coeff:      0.209D-04-0.939D-03 0.272D-02 0.820D-02 0.358D-01 0.141D+00
 Coeff:      0.310D+00 0.504D+00
 Gap=     0.140 Goal=   None    Shift=    0.000
 RMSDP=8.90D-06 MaxDP=5.08D-04 DE=-7.53D-05 OVMax= 6.32D-04

 Cycle   9  Pass 1  IDiag  1:
 RMSU=  6.49D-06    CP:  9.68D-01  2.74D-01  8.21D-01  6.89D-01  6.27D-01
                    CP:  6.58D-01  6.89D-01  6.81D-01
 E= -1339.42085233681     Delta-E=       -0.000006731151 Rises=F Damp=F
 DIIS: error= 4.41D-05 at cycle   9 NSaved=   9.
 NSaved= 9 IEnMin= 9 EnMin= -1339.42085233681     IErMin= 9 ErrMin= 4.41D-05
 ErrMax= 4.41D-05  0.00D+00 EMaxC= 1.00D-01 BMatC= 6.80D-07 BMatP= 7.74D-06
 IDIUse=1 WtCom= 1.00D+00 WtEn= 0.00D+00
 Coeff-Com:  0.156D-03-0.286D-03 0.160D-03 0.228D-04 0.553D-02 0.325D-01
 Coeff-Com:  0.999D-01 0.273D+00 0.589D+00
 Coeff:      0.156D-03-0.286D-03 0.160D-03 0.228D-04 0.553D-02 0.325D-01
 Coeff:      0.999D-01 0.273D+00 0.589D+00
 Gap=     0.140 Goal=   None    Shift=    0.000
 RMSDP=2.89D-06 MaxDP=1.07D-04 DE=-6.73D-06 OVMax= 2.11D-04

 Cycle  10  Pass 1  IDiag  1:
 RMSU=  2.11D-06    CP:  9.68D-01  2.74D-01  8.21D-01  6.89D-01  6.27D-01
                    CP:  6.60D-01  6.95D-01  7.24D-01  7.68D-01
 E= -1339.42085299947     Delta-E=       -0.000000662656 Rises=F Damp=F
 DIIS: error= 9.80D-06 at cycle  10 NSaved=  10.
 NSaved=10 IEnMin=10 EnMin= -1339.42085299947     IErMin=10 ErrMin= 9.80D-06
 ErrMax= 9.80D-06  0.00D+00 EMaxC= 1.00D-01 BMatC= 5.33D-08 BMatP= 6.80D-07
 IDIUse=1 WtCom= 1.00D+00 WtEn= 0.00D+00
 Coeff-Com:  0.745D-04-0.903D-04-0.936D-04-0.649D-03-0.374D-03 0.257D-02
 Coeff-Com:  0.210D-01 0.835D-01 0.284D+00 0.610D+00
 Coeff:      0.745D-04-0.903D-04-0.936D-04-0.649D-03-0.374D-03 0.257D-02
 Coeff:      0.210D-01 0.835D-01 0.284D+00 0.610D+00
 Gap=     0.140 Goal=   None    Shift=    0.000
 RMSDP=9.80D-07 MaxDP=3.97D-05 DE=-6.63D-07 OVMax= 7.42D-05

 Cycle  11  Pass 1  IDiag  1:
 RMSU=  6.07D-07    CP:  9.68D-01  2.74D-01  8.21D-01  6.89D-01  6.27D-01
                    CP:  6.60D-01  6.99D-01  7.37D-01  7.97D-01  6.96D-01
 E= -1339.42085305299     Delta-E=       -0.000000053529 Rises=F Damp=F
 DIIS: error= 2.66D-06 at cycle  11 NSaved=  11.
 NSaved=11 IEnMin=11 EnMin= -1339.42085305299     IErMin=11 ErrMin= 2.66D-06
 ErrMax= 2.66D-06  0.00D+00 EMaxC= 1.00D-01 BMatC= 5.82D-09 BMatP= 5.33D-08
 IDIUse=1 WtCom= 1.00D+00 WtEn= 0.00D+00
 Coeff-Com:  0.228D-04-0.110D-04-0.466D-04-0.327D-03-0.796D-03-0.231D-02
 Coeff-Com:  0.610D-03 0.145D-01 0.835D-01 0.315D+00 0.590D+00
 Coeff:      0.228D-04-0.110D-04-0.466D-04-0.327D-03-0.796D-03-0.231D-02
 Coeff:      0.610D-03 0.145D-01 0.835D-01 0.315D+00 0.590D+00
 Gap=     0.140 Goal=   None    Shift=    0.000
 RMSDP=2.82D-07 MaxDP=1.58D-05 DE=-5.35D-08 OVMax= 1.97D-05

 Cycle  12  Pass 1  IDiag  1:
 RMSU=  1.66D-07    CP:  9.68D-01  2.74D-01  8.21D-01  6.89D-01  6.27D-01
                    CP:  6.60D-01  7.00D-01  7.37D-01  8.05D-01  7.50D-01
                    CP:  7.27D-01
 E= -1339.42085305880     Delta-E=       -0.000000005808 Rises=F Damp=F
 DIIS: error= 8.54D-07 at cycle  12 NSaved=  12.
 NSaved=12 IEnMin=12 EnMin= -1339.42085305880     IErMin=12 ErrMin= 8.54D-07
 ErrMax= 8.54D-07  0.00D+00 EMaxC= 1.00D-01 BMatC= 4.15D-10 BMatP= 5.82D-09
 IDIUse=1 WtCom= 1.00D+00 WtEn= 0.00D+00
 Coeff-Com:  0.442D-05-0.107D-05-0.697D-05-0.883D-04-0.326D-03-0.127D-02
 Coeff-Com: -0.114D-02 0.103D-02 0.191D-01 0.113D+00 0.291D+00 0.579D+00
 Coeff:      0.442D-05-0.107D-05-0.697D-05-0.883D-04-0.326D-03-0.127D-02
 Coeff:     -0.114D-02 0.103D-02 0.191D-01 0.113D+00 0.291D+00 0.579D+00
 Gap=     0.140 Goal=   None    Shift=    0.000
 RMSDP=8.30D-08 MaxDP=4.17D-06 DE=-5.81D-09 OVMax= 9.23D-06

 Cycle  13  Pass 1  IDiag  1:
 RMSU=  5.52D-08    CP:  9.68D-01  2.74D-01  8.21D-01  6.89D-01  6.27D-01
                    CP:  6.60D-01  7.00D-01  7.37D-01  8.08D-01  7.61D-01
                    CP:  7.25D-01  7.00D-01
 E= -1339.42085305920     Delta-E=       -0.000000000401 Rises=F Damp=F
 DIIS: error= 3.09D-07 at cycle  13 NSaved=  13.
 NSaved=13 IEnMin=13 EnMin= -1339.42085305920     IErMin=13 ErrMin= 3.09D-07
 ErrMax= 3.09D-07  0.00D+00 EMaxC= 1.00D-01 BMatC= 3.38D-11 BMatP= 4.15D-10
 IDIUse=1 WtCom= 1.00D+00 WtEn= 0.00D+00
 Coeff-Com:  0.705D-06 0.755D-08-0.877D-06-0.137D-04-0.875D-04-0.406D-03
 Coeff-Com: -0.624D-03-0.986D-03 0.279D-03 0.218D-01 0.729D-01 0.260D+00
 Coeff-Com:  0.648D+00
 Coeff:      0.705D-06 0.755D-08-0.877D-06-0.137D-04-0.875D-04-0.406D-03
 Coeff:     -0.624D-03-0.986D-03 0.279D-03 0.218D-01 0.729D-01 0.260D+00
 Coeff:      0.648D+00
 Gap=     0.140 Goal=   None    Shift=    0.000
 RMSDP=2.46D-08 MaxDP=1.61D-06 DE=-4.01D-10 OVMax= 1.65D-06

 Cycle  14  Pass 1  IDiag  1:
 RMSU=  1.71D-08    CP:  9.68D-01  2.74D-01  8.21D-01  6.89D-01  6.27D-01
                    CP:  6.60D-01  7.00D-01  7.38D-01  8.08D-01  7.62D-01
                    CP:  7.35D-01  7.23D-01  7.98D-01
 E= -1339.42085305921     Delta-E=       -0.000000000011 Rises=F Damp=F
 DIIS: error= 1.07D-07 at cycle  14 NSaved=  14.
 NSaved=14 IEnMin=14 EnMin= -1339.42085305921     IErMin=14 ErrMin= 1.07D-07
 ErrMax= 1.07D-07  0.00D+00 EMaxC= 1.00D-01 BMatC= 7.17D-12 BMatP= 3.38D-11
 IDIUse=1 WtCom= 1.00D+00 WtEn= 0.00D+00
 Coeff-Com: -0.998D-08 0.335D-06 0.384D-07-0.835D-06-0.266D-04-0.143D-03
 Coeff-Com: -0.282D-03-0.652D-03-0.142D-02 0.358D-02 0.179D-01 0.105D+00
 Coeff-Com:  0.390D+00 0.487D+00
 Coeff:     -0.998D-08 0.335D-06 0.384D-07-0.835D-06-0.266D-04-0.143D-03
 Coeff:     -0.282D-03-0.652D-03-0.142D-02 0.358D-02 0.179D-01 0.105D+00
 Coeff:      0.390D+00 0.487D+00
 Gap=     0.140 Goal=   None    Shift=    0.000
 RMSDP=8.49D-09 MaxDP=3.33D-07 DE=-1.14D-11 OVMax= 5.51D-07

 Error on total polarization charges =  0.01675
 SCF Done:  E(RTPSSh) =  -1339.42085306     A.U. after   14 cycles
            NFock= 14  Conv=0.85D-08     -V/T= 2.0706
 KE= 1.251138403598D+03 PE=-6.812171093834D+03 EE= 2.367975165809D+03
 Leave Link  502 at Sun Feb  8 17:07:45 2026, MaxMem= 16106127360 cpu:            1885.9 elap:              34.9
 (Enter /home/software/g16-shuai/g16/l801.exe)
 DoSCS=F DFT=T ScalE2(SS,OS)=  1.000000  1.000000
 ExpMin= 4.90D-02 ExpMax= 1.04D+04 ExpMxC= 1.57D+03 IAcc=3 IRadAn=         5 AccDes= 0.00D+00
 HarFok:  IExCor=  205 AccDes= 0.00D+00 IRadAn=         5 IDoV=-2 UseB2=F ITyADJ=14
 ICtDFT= 12500011 ScaDFX=  1.000000  1.000000  1.000000  1.000000
 Defaulting to unpruned grid for atomic number  78.
 GSVD:  LWork=        -713 too small for GESVD, short by        2990 words or        2990 for optimal perf.
 Largest valence mixing into a core orbital is  9.56D-05
 Largest core mixing into a valence orbital is  6.45D-05
 Range of M.O.s used for correlation:    24   367
 NBasis=   367 NAE=    80 NBE=    80 NFC=    23 NFV=     0
 NROrb=    344 NOA=    57 NOB=    57 NVA=   287 NVB=   287

 **** Warning!!: The largest alpha MO coefficient is  0.12884139D+02

 Leave Link  801 at Sun Feb  8 17:07:45 2026, MaxMem= 16106127360 cpu:               5.6 elap:               0.1
 (Enter /home/software/g16-shuai/g16/l914.exe)
 RHF ground state
 Two-electron integral symmetry not used.
 MDV= 16106127360 DFT=T DoStab=F Mixed=T DoRPA=T DoScal=F NonHer=T
 NEqPCM:  Using equilibrium solvation (IEInf=0, Eps=   8.9300, EpsInf=   2.0283)
 Making orbital integer symmetry assigments:
    40 initial guesses have been made.
 Convergence on wavefunction:    0.000001000000000
 Davidson Disk Diagonalization:  ConvIn= 1.00D-06 SkipCon=T Conv= 1.00D-06.
 Max sub-space:  2000 roots to seek:    40 dimension of matrix:        32718
 Iteration     1 Dimension    40 NMult     0 NNew     40
 CISAX will form    40 AO SS matrices at one time.
 NMat=    40 NSing=    40 JSym2X= 0.
 FoFJK:  IHMeth= 1 ICntrl=       0 DoSepK=F KAlg= 0 I1Cent=           0 FoldK=F
 IRaf= 850000000 NMat=      80 IRICut=     100 DoRegI=T DoRafI=T ISym2E= 0 IDoP0=3 IntGTp=3.
 FoFCou: FMM=F IPFlag=           0 FMFlag=      100000 FMFlg1=           0
         NFxFlg=           0 DoJE=F BraDBF=F KetDBF=F FulRan=T
         wScrn=  0.000000 ICntrl=         0 IOpCl=  0 I1Cent=           0 NGrid=           0
         NMat0=   80 NMatS0=     40 NMatT0=    0 NMatD0=   80 NMtDS0=    0 NMtDT0=    0
 Symmetry not used in FoFCou.
 Raff kept on since  82.88% of shell-pairs survive, threshold=   0.20 IRatSp=83.
 Defaulting to unpruned grid for atomic number  78.
 Defaulting to unpruned grid for atomic number  78.
 Defaulting to unpruned grid for atomic number  78.
 Defaulting to unpruned grid for atomic number  78.
 Defaulting to unpruned grid for atomic number  78.
 Defaulting to unpruned grid for atomic number  78.
 Defaulting to unpruned grid for atomic number  78.
 Defaulting to unpruned grid for atomic number  78.
 Defaulting to unpruned grid for atomic number  78.
 Defaulting to unpruned grid for atomic number  78.
 Defaulting to unpruned grid for atomic number  78.
 Defaulting to unpruned grid for atomic number  78.
 Defaulting to unpruned grid for atomic number  78.
 Defaulting to unpruned grid for atomic number  78.
 Defaulting to unpruned grid for atomic number  78.
 Defaulting to unpruned grid for atomic number  78.
 Defaulting to unpruned grid for atomic number  78.
 Defaulting to unpruned grid for atomic number  78.
 Defaulting to unpruned grid for atomic number  78.
 Defaulting to unpruned grid for atomic number  78.
 Defaulting to unpruned grid for atomic number  78.
 Defaulting to unpruned grid for atomic number  78.
 Defaulting to unpruned grid for atomic number  78.
 Defaulting to unpruned grid for atomic number  78.
 Defaulting to unpruned grid for atomic number  78.
 Defaulting to unpruned grid for atomic number  78.
 Defaulting to unpruned grid for atomic number  78.
 Defaulting to unpruned grid for atomic number  78.
 Defaulting to unpruned grid for atomic number  78.
 Defaulting to unpruned grid for atomic number  78.
 Defaulting to unpruned grid for atomic number  78.
 Defaulting to unpruned grid for atomic number  78.
 Defaulting to unpruned grid for atomic number  78.
 Defaulting to unpruned grid for atomic number  78.
 Defaulting to unpruned grid for atomic number  78.
 Defaulting to unpruned grid for atomic number  78.
 Defaulting to unpruned grid for atomic number  78.
 Defaulting to unpruned grid for atomic number  78.
 Defaulting to unpruned grid for atomic number  78.
 Defaulting to unpruned grid for atomic number  78.
 Defaulting to unpruned grid for atomic number  78.
 Defaulting to unpruned grid for atomic number  78.
 Defaulting to unpruned grid for atomic number  78.
 Defaulting to unpruned grid for atomic number  78.
 Defaulting to unpruned grid for atomic number  78.
 Defaulting to unpruned grid for atomic number  78.
 Defaulting to unpruned grid for atomic number  78.
 Defaulting to unpruned grid for atomic number  78.
 Defaulting to unpruned grid for atomic number  78.
 Defaulting to unpruned grid for atomic number  78.
 Defaulting to unpruned grid for atomic number  78.
 Defaulting to unpruned grid for atomic number  78.
 Defaulting to unpruned grid for atomic number  78.
 Defaulting to unpruned grid for atomic number  78.
 Defaulting to unpruned grid for atomic number  78.
 Defaulting to unpruned grid for atomic number  78.
 New state      2 was old state      4
 New state      3 was old state      5
 New state      4 was old state      2
 New state      5 was old state      3
 New state      6 was old state      7
 New state      7 was old state      8
 New state      8 was old state      6
 New state      9 was old state     10
 New state     10 was old state      9
 Excitation Energies [eV] at current iteration:
 Root      1 :     3.731727770208673
 Root      2 :     3.777573546496116
 Root      3 :     3.795676489434638
 Root      4 :     3.799768776706309
 Root      5 :     4.046763474396139
 Root      6 :     4.278938717234230
 Root      7 :     4.309140442475343
 Root      8 :     4.431911031084904
 Root      9 :     4.777536305932196
 Root     10 :     4.816178135185542
 Root     11 :     5.031377692383593
 Root     12 :     5.129047132115921
 Root     13 :     5.200372815334811
 Root     14 :     5.224340948859592
 Root     15 :     5.301092529316592
 Root     16 :     5.307649036692521
 Root     17 :     5.406302945303185
 Root     18 :     5.476809351334730
 Root     19 :     5.485237114902466
 Root     20 :     5.494992322008828
 Root     21 :     5.513643885330237
 Root     22 :     5.559112330794122
 Root     23 :     5.567944438605588
 Root     24 :     5.598022568874990
 Root     25 :     5.643191671613196
 Root     26 :     5.650725098351961
 Root     27 :     5.671324989506358
 Root     28 :     5.689529652740408
 Root     29 :     5.696213450844960
 Root     30 :     5.778584066140901
 Root     31 :     5.957413985194130
 Root     32 :     5.965745699487131
 Root     33 :     5.990602379212062
 Root     34 :     6.038097117852493
 Root     35 :     6.261175465451348
 Root     36 :     6.374595510528566
 Root     37 :     6.576597695738609
 Root     38 :     6.842187217204237
 Root     39 :     7.228901646885029
 Root     40 :     7.237208738484172
 Iteration     2 Dimension    60 NMult    40 NNew     20
 CISAX will form    20 AO SS matrices at one time.
 NMat=    20 NSing=    20 JSym2X= 0.
 Root      1 not converged, maximum delta is    0.054146500511368
 New state      2 was old state      4
 Root      2 not converged, maximum delta is    0.105353411637200
 Root      3 not converged, maximum delta is    0.101481907677669
 New state      4 was old state      2
 Root      4 not converged, maximum delta is    0.079546934104989
 Root      5 not converged, maximum delta is    0.056289750174035
 Root      6 not converged, maximum delta is    0.078731475630096
 New state      7 was old state      8
 Root      7 not converged, maximum delta is    0.140300165562264
 New state      8 was old state      7
 Root      8 not converged, maximum delta is    0.028231659769998
 New state      9 was old state     10
 Root      9 not converged, maximum delta is    0.116815308810395
 New state     10 was old state      9
 Root     10 not converged, maximum delta is    0.093001795436726
 Excitation Energies [eV] at current iteration:
 Root      1 :     3.537499107201280   Change is   -0.194228663007393
 Root      2 :     3.676691773797995   Change is   -0.123077002908314
 Root      3 :     3.755311436559754   Change is   -0.040365052874883
 Root      4 :     3.758991151987983   Change is   -0.018582394508133
 Root      5 :     3.940546120954069   Change is   -0.106217353442069
 Root      6 :     4.271883092054813   Change is   -0.007055625179418
 Root      7 :     4.287463590649567   Change is   -0.144447440435336
 Root      8 :     4.305456760405018   Change is   -0.003683682070325
 Root      9 :     4.530830806169548   Change is   -0.285347329015993
 Root     10 :     4.652163653739631   Change is   -0.125372652192565
 Iteration     3 Dimension    80 NMult    60 NNew     20
 CISAX will form    20 AO SS matrices at one time.
 NMat=    20 NSing=    20 JSym2X= 0.
 Root      1 not converged, maximum delta is    0.015914443678461
 Root      2 not converged, maximum delta is    0.003700369511008
 Root      3 not converged, maximum delta is    0.009859677207244
 Root      4 not converged, maximum delta is    0.004454560152522
 Root      5 not converged, maximum delta is    0.015673613199325
 Root      6 not converged, maximum delta is    0.427260390059568
 Root      7 not converged, maximum delta is    0.455956248387927
 Root      8 not converged, maximum delta is    0.011515457320420
 Root      9 not converged, maximum delta is    0.017724792216143
 Root     10 not converged, maximum delta is    0.036718626861039
 Excitation Energies [eV] at current iteration:
 Root      1 :     3.523237427201992   Change is   -0.014261679999289
 Root      2 :     3.670967250467717   Change is   -0.005724523330278
 Root      3 :     3.752627737722421   Change is   -0.002683698837333
 Root      4 :     3.758064442385592   Change is   -0.000926709602390
 Root      5 :     3.927993714358048   Change is   -0.012552406596021
 Root      6 :     4.269220103571344   Change is   -0.002662988483469
 Root      7 :     4.273473558687804   Change is   -0.013990031961764
 Root      8 :     4.305237927559530   Change is   -0.000218832845488
 Root      9 :     4.519629297784385   Change is   -0.011201508385164
 Root     10 :     4.639466535907081   Change is   -0.012697117832550
 Iteration     4 Dimension   100 NMult    80 NNew     20
 CISAX will form    20 AO SS matrices at one time.
 NMat=    20 NSing=    20 JSym2X= 0.
 Root      1 not converged, maximum delta is    0.003435083168695
 Root      2 not converged, maximum delta is    0.001990094625572
 Root      3 not converged, maximum delta is    0.001208518538837
 Root      4 not converged, maximum delta is    0.000581394002990
 Root      5 not converged, maximum delta is    0.002812620003165
 Root      6 not converged, maximum delta is    0.083606479627195
 Root      7 not converged, maximum delta is    0.077899163383773
 Root      8 not converged, maximum delta is    0.000506007490937
 Root      9 not converged, maximum delta is    0.002757888673023
 Root     10 not converged, maximum delta is    0.004669014642535
 Excitation Energies [eV] at current iteration:
 Root      1 :     3.521935473174138   Change is   -0.001301954027854
 Root      2 :     3.670464311925302   Change is   -0.000502938542415
 Root      3 :     3.752449819891188   Change is   -0.000177917831233
 Root      4 :     3.758003380972370   Change is   -0.000061061413223
 Root      5 :     3.927257480568873   Change is   -0.000736233789174
 Root      6 :     4.268247342587580   Change is   -0.000972760983765
 Root      7 :     4.273016590036585   Change is   -0.000456968651218
 Root      8 :     4.305216395235766   Change is   -0.000021532323763
 Root      9 :     4.518436851173908   Change is   -0.001192446610477
 Root     10 :     4.638173730603916   Change is   -0.001292805303165
 Iteration     5 Dimension   120 NMult   100 NNew     20
 CISAX will form    20 AO SS matrices at one time.
 NMat=    20 NSing=    20 JSym2X= 0.
 Root      1 not converged, maximum delta is    0.000778402968810
 Root      2 not converged, maximum delta is    0.000278453342554
 Root      3 not converged, maximum delta is    0.000185972319804
 Root      4 not converged, maximum delta is    0.000133128190376
 Root      5 not converged, maximum delta is    0.000522096585148
 Root      6 not converged, maximum delta is    0.008670693870139
 Root      7 not converged, maximum delta is    0.008118240134400
 Root      8 not converged, maximum delta is    0.000119258479998
 Root      9 not converged, maximum delta is    0.001252355238099
 Root     10 not converged, maximum delta is    0.000891186015370
 Excitation Energies [eV] at current iteration:
 Root      1 :     3.521779852538062   Change is   -0.000155620636075
 Root      2 :     3.670430790223389   Change is   -0.000033521701914
 Root      3 :     3.752438905918477   Change is   -0.000010913972711
 Root      4 :     3.757999929655468   Change is   -0.000003451316902
 Root      5 :     3.927187668972267   Change is   -0.000069811596606
 Root      6 :     4.268125394823110   Change is   -0.000121947764471
 Root      7 :     4.272975896012878   Change is   -0.000040694023708
 Root      8 :     4.305214159872899   Change is   -0.000002235362867
 Root      9 :     4.518291814241453   Change is   -0.000145036932455
 Root     10 :     4.637992533313496   Change is   -0.000181197290419
 Iteration     6 Dimension   140 NMult   120 NNew     20
 CISAX will form    20 AO SS matrices at one time.
 NMat=    20 NSing=    20 JSym2X= 0.
 Root      1 not converged, maximum delta is    0.000112256375985
 Root      2 not converged, maximum delta is    0.000062959093969
 Root      3 not converged, maximum delta is    0.000038907876139
 Root      4 not converged, maximum delta is    0.000029472838519
 Root      5 not converged, maximum delta is    0.000124301671152
 Root      6 not converged, maximum delta is    0.000731092258648
 Root      7 not converged, maximum delta is    0.000689632284660
 Root      8 not converged, maximum delta is    0.000026339064691
 Root      9 not converged, maximum delta is    0.000209854681650
 Root     10 not converged, maximum delta is    0.000361089831783
 Excitation Energies [eV] at current iteration:
 Root      1 :     3.521772375560893   Change is   -0.000007476977170
 Root      2 :     3.670428914214735   Change is   -0.000001876008654
 Root      3 :     3.752438320670739   Change is   -0.000000585247738
 Root      4 :     3.757999740528998   Change is   -0.000000189126471
 Root      5 :     3.927182324279273   Change is   -0.000005344692994
 Root      6 :     4.268114828599012   Change is   -0.000010566224097
 Root      7 :     4.272972523549256   Change is   -0.000003372463622
 Root      8 :     4.305213979655202   Change is   -0.000000180217698
 Root      9 :     4.518279990207004   Change is   -0.000011824034449
 Root     10 :     4.637976125067154   Change is   -0.000016408246342
 Iteration     7 Dimension   160 NMult   140 NNew     20
 CISAX will form    20 AO SS matrices at one time.
 NMat=    20 NSing=    20 JSym2X= 0.
 Root      1 not converged, maximum delta is    0.000032503298922
 Root      2 not converged, maximum delta is    0.000018017967377
 Root      3 not converged, maximum delta is    0.000012980754425
 Root      4 not converged, maximum delta is    0.000007087975771
 Root      5 not converged, maximum delta is    0.000033446500172
 Root      6 not converged, maximum delta is    0.000050374713606
 Root      7 not converged, maximum delta is    0.000046607400020
 Root      8 not converged, maximum delta is    0.000010834394565
 Root      9 not converged, maximum delta is    0.000054915731979
 Root     10 not converged, maximum delta is    0.000081813810013
 Excitation Energies [eV] at current iteration:
 Root      1 :     3.521772022728155   Change is   -0.000000352832737
 Root      2 :     3.670428781119296   Change is   -0.000000133095439
 Root      3 :     3.752438280670653   Change is   -0.000000040000086
 Root      4 :     3.757999729275799   Change is   -0.000000011253199
 Root      5 :     3.927181987432802   Change is   -0.000000336846471
 Root      6 :     4.268114098747400   Change is   -0.000000729851612
 Root      7 :     4.272972285336193   Change is   -0.000000238213063
 Root      8 :     4.305213962248353   Change is   -0.000000017406849
 Root      9 :     4.518278950288102   Change is   -0.000001039918902
 Root     10 :     4.637974002458676   Change is   -0.000002122608478
 Iteration     8 Dimension   180 NMult   160 NNew     20
 CISAX will form    20 AO SS matrices at one time.
 NMat=    20 NSing=    20 JSym2X= 0.
 Root      1 not converged, maximum delta is    0.000003963913433
 Root      2 not converged, maximum delta is    0.000004183418661
 Root      3 not converged, maximum delta is    0.000004071056127
 Root      4 not converged, maximum delta is    0.000001608497926
 Root      5 not converged, maximum delta is    0.000007512279529
 Root      6 not converged, maximum delta is    0.000009629504689
 Root      7 not converged, maximum delta is    0.000005340714304
 Root      8 not converged, maximum delta is    0.000002578819570
 Root      9 not converged, maximum delta is    0.000014960480089
 Root     10 not converged, maximum delta is    0.000023891989923
 Excitation Energies [eV] at current iteration:
 Root      1 :     3.521772009477533   Change is   -0.000000013250623
 Root      2 :     3.670428773837613   Change is   -0.000000007281683
 Root      3 :     3.752438278140613   Change is   -0.000000002530039
 Root      4 :     3.757999728445782   Change is   -0.000000000830016
 Root      5 :     3.927181964785587   Change is   -0.000000022647216
 Root      6 :     4.268114046954044   Change is   -0.000000051793357
 Root      7 :     4.272972267821204   Change is   -0.000000017514989
 Root      8 :     4.305213960708504   Change is   -0.000000001539849
 Root      9 :     4.518278864210448   Change is   -0.000000086077654
 Root     10 :     4.637973816714323   Change is   -0.000000185744353
 Iteration     9 Dimension   200 NMult   180 NNew     20
 CISAX will form    20 AO SS matrices at one time.
 NMat=    20 NSing=    20 JSym2X= 0.
 Root      1 not converged, maximum delta is    0.000001071983874
[...]
 9151,0.00750998,0.00049256,-0.00003350,-0.00602641,-0.01471382,-0.0002
 1419,-0.01722756,0.00651707,-0.00017803,0.00339019,0.00707687,0.000110
 63,0.00512582,-0.00518390,0.00006122,-0.00949260,-0.00136723,-0.000168
 73,0.00018214,0.00032753,0.00000749,-0.00010311,0.00000464,-0.00000262
 ,-0.00023012,-0.00020448,-0.00000115,0.02080858,0.00481240,0.00052321,
 0.00373619,0.00195192,0.00008822,-0.00006150,0.00014272,0.00000246,-0.
 04308660,-0.15507367,-0.00168086,0.08037207,-0.18429626,-0.00045199,-0
 .00782538,0.00992509,0.00003989,-0.00003614,0.00049389,-0.00004640,-0.
 00018899,-0.00277721,-0.00000946,-0.00009878,0.00076150,-0.00024888,-0
 .00027633,0.00014638,-0.00000983,-0.00009830,0.00078824,0.00030486,-0.
 02038917,-0.22207673,-0.00211053,-0.00654215,-0.02466063,-0.00037561,-
 0.00487063,-0.02447296,0.00185957,-0.00481358,-0.02404388,-0.00278608,
 0.01041357,-0.02170225,-0.00008186,-0.01178623,0.00920059,-0.00025516,
 0.03832817,0.75212392,-0.00030642,-0.00004503,-0.00042233,0.00018909,0
 .00014150,-0.00236764,-0.00018702,-0.00025851,0.00177294,-0.00040742,0
 .00001689,0.00124040,0.00007526,0.00003509,0.00052859,0.00006007,-0.00
 002084,0.00004470,-0.00008544,-0.00000882,-0.00011471,0.00000238,-0.00
 000201,-0.00025124,-0.00000026,-0.00000453,-0.00008128,-0.00000066,-0.
 00000289,0.00000505,0.00025116,0.00014226,0.00488674,0.00007968,0.0000
 7193,-0.00015538,-0.00000339,0.00000151,-0.00015315,-0.00314778,-0.002
 27647,-0.04063770,-0.00079517,-0.00078682,-0.05341598,-0.00022944,0.00
 042509,-0.00191537,-0.00000399,0.00001506,-0.00094764,0.00000428,-0.00
 005104,0.00013821,0.00006853,0.00002196,-0.00000828,-0.00001253,-0.000
 00090,0.00006035,-0.00007473,0.00000933,0.00000420,-0.00078914,-0.0021
 4808,-0.06152489,0.00013653,0.00037732,-0.00128034,0.00201463,0.026005
 69,0.00771761,-0.00247269,-0.02753152,0.00718554,0.00026376,-0.0003954
 8,-0.00115585,-0.00026109,0.00013536,-0.00110089,0.00620304,0.00753811
 ,0.12022963,0.01462114,0.01667908,-0.00000994,-0.10570576,-0.01338291,
 -0.00164489,-0.17549117,-0.05947433,-0.00253738,0.04689804,-0.01661422
 ,0.00046367,-0.01995133,-0.03805492,-0.00075862,-0.02447969,0.02140770
 ,-0.00030179,0.04097722,0.00541791,0.00060823,-0.00020692,0.00038762,0
 .00006664,-0.00020688,-0.00002049,-0.00000610,0.00069327,0.00016558,0.
 00001832,-0.03137087,-0.02528886,-0.00096028,-0.01005597,-0.00636002,-
 0.00024125,0.00038399,0.00004757,-0.00000241,-0.14438618,0.07517809,-0
 .00030989,-0.08537549,-0.04493385,-0.00169401,0.00137058,-0.00299974,-
 0.00008369,0.00012382,0.00309942,0.00014938,0.00029329,0.00409930,-0.0
 0000340,0.00003428,-0.00123507,0.00031757,0.00059923,-0.00010017,0.000
 02164,0.00002760,-0.00127974,-0.00040117,-0.00333200,-0.00118830,-0.00
 007235,-0.00044076,0.00010278,-0.00000886,-0.00020883,0.00014052,-0.00
 043515,-0.00023164,0.00015629,0.00044087,-0.03700256,0.04595858,0.0000
 0350,0.02504512,-0.01129357,0.00058228,0.00575307,-0.02328170,-0.00030
 914,0.75329437,0.05755980,-0.01975493,-0.00020726,-0.05224658,0.021171
 50,0.00003097,-0.00867388,-0.13799305,-0.00100455,0.07196584,-0.045764
 06,0.00041143,-0.08205044,-0.08478001,-0.00216097,-0.04001278,0.050484
 49,-0.00040564,0.08764542,-0.00161930,0.00139369,-0.00034003,0.0021584
 9,-0.00002544,-0.00052452,0.00041754,0.00006541,-0.00107933,-0.0006129
 0,-0.00002260,-0.05694431,-0.04026400,-0.00166024,-0.01297622,-0.00506
 405,-0.00029184,0.00067114,0.00011723,0.00000684,-0.04528804,-0.139409
 54,-0.00138327,-0.03429131,-0.00833768,-0.00063528,0.00049938,-0.00557
 034,-0.00010358,0.00118729,0.00100936,0.00037743,0.00044629,0.00736336
 ,0.00000559,0.00016042,-0.00208319,0.00064713,0.00089434,-0.00017045,0
 .00003163,0.00016321,-0.00215555,-0.00078964,-0.00485987,-0.00352235,-
 0.00015715,-0.00027205,0.00059076,-0.00000148,0.00022484,-0.00024583,-
 0.00077329,0.00019391,-0.00025354,0.00080706,-0.04404273,0.08690987,0.
 00038340,0.03528660,-0.02226166,0.00079918,-0.01551155,-0.04095217,-0.
 00083012,0.04848816,0.51394958,0.00077154,0.00001518,0.00549454,-0.002
 41457,-0.00017848,0.00563782,-0.00186832,-0.00176729,-0.04673964,0.001
 66395,-0.00081010,0.00234907,-0.00126851,-0.00163021,0.00591967,-0.000
 85761,0.00097489,-0.00044635,0.00162789,0.00002039,0.00644096,0.000055
 75,0.00004334,-0.00356775,-0.00000169,0.00000887,-0.00066163,0.0000039
 1,-0.00000594,0.00000422,-0.00128187,-0.00094707,0.00275687,-0.0003215
 6,-0.00015745,-0.00028261,0.00001368,0.00000285,-0.00003120,-0.0017195
 6,0.00006803,-0.05713713,-0.00161333,-0.00068466,0.01461686,-0.0000425
 7,-0.00015643,0.00548396,0.00004376,0.00006907,-0.00016237,0.00000396,
 0.00014384,0.00018829,-0.00002578,-0.00006391,0.00000749,0.00002356,-0
 .00000302,-0.00002286,0.00003068,-0.00002443,-0.00002004,-0.00018560,-
 0.00010066,0.00563946,-0.00000047,0.00000845,-0.00013128,-0.00051432,-
 0.00073063,-0.00031323,0.00052893,0.00073728,-0.00025772,-0.00115864,0
 .00185263,-0.00084007,0.00084000,-0.00043539,-0.00112795,0.00002558,-0
 .00071989,-0.00013056,0.00910940,0.00506969,0.10412201,-0.00664335,0.0
 0153284,0.00018452,0.01687665,-0.00103138,0.00006607,-0.05092541,-0.01
 870337,-0.00081166,-0.01549458,0.00738651,-0.00015377,0.01228256,0.013
 55477,0.00030354,0.00816746,-0.00762954,0.00011437,-0.01488229,-0.0011
 9350,-0.00026112,0.00028903,0.00008712,0.00000734,0.00007827,-0.000082
 08,-0.00000178,0.00020423,0.00019030,0.00000682,0.00771938,0.00733764,
 0.00019812,0.00270332,0.00135283,0.00006003,-0.00013181,-0.00003295,-0
 .00000048,-0.01274018,0.04110998,0.00015583,-0.15061706,-0.14825934,-0
 .00255254,-0.00050672,-0.02169912,-0.00025809,-0.00022553,-0.00065569,
 -0.00007372,-0.00002914,-0.00135225,-0.00000233,-0.00004255,0.00037392
 ,-0.00011028,-0.00016903,0.00002262,-0.00000538,-0.00004060,0.00038768
 ,0.00013679,-0.00777485,0.00157883,-0.00013923,0.00071411,0.00163745,0
 .00003406,0.00022463,-0.00118829,-0.00010359,0.00022201,-0.00120431,0.
 00009090,0.01069808,-0.01509315,-0.00002291,-0.00709186,0.00325989,-0.
 00016126,-0.00497028,0.01054790,-0.00006278,-0.25444665,0.04799453,-0.
 00211243,0.57690272,0.00389573,-0.00308205,-0.00001252,-0.00983906,-0.
 00354258,-0.00018087,-0.01253553,0.02021372,0.00021716,0.00752462,-0.0
 0309246,0.00005485,-0.00392943,-0.00386989,-0.00019569,-0.00411050,0.0
 0502705,-0.00003552,0.00805196,-0.00009671,0.00012820,0.00013609,-0.00
 047360,-0.00002763,-0.00002568,0.00001153,-0.00000037,0.00001881,-0.00
 001747,-0.00000094,-0.00548230,-0.00432146,-0.00016755,-0.00177539,-0.
 00128087,-0.00004560,0.00009974,0.00004511,-0.00000020,0.01439570,-0.0
 2188495,-0.00011740,-0.14570837,-0.39056516,-0.00520316,0.00293664,0.0
 0619198,0.00008834,0.00040616,0.00056171,0.00003815,0.00008520,0.00073
 799,-0.00000047,0.00000952,-0.00023010,0.00005494,0.00005409,-0.000016
 17,0.00000348,0.00000815,-0.00023763,-0.00006894,0.00470907,0.00468811
 ,0.00008024,-0.00073042,-0.00129766,-0.00003831,-0.00085188,-0.0010397
 2,0.00065365,-0.00084546,-0.00106063,-0.00070242,-0.00617214,0.0086819
 3,0.00000801,0.00463631,-0.00176911,0.00010825,0.04751890,-0.08005425,
 -0.00041395,0.01995051,-0.13656408,-0.00087141,-0.03397101,0.92700259,
 -0.00010029,-0.00000603,0.00048311,0.00017834,-0.00012103,0.00132972,-
 0.00099500,0.00000109,-0.00527048,-0.00025980,0.00011194,0.00136166,0.
 00016946,0.00011979,-0.00040485,0.00012530,-0.00009744,-0.00014943,-0.
 00020036,-0.00002410,0.00006823,0.00000019,-0.00003764,-0.00032059,0.0
 0000158,-0.00000043,-0.00005917,0.00000046,0.00000157,0.00005181,0.000
 11595,0.00009463,-0.00031209,0.00003682,0.00001762,-0.00006106,-0.0000
 0163,-0.00000016,0.00002026,0.00001041,0.00010877,0.00777497,-0.002519
 40,-0.00529172,-0.05905896,0.00000652,-0.00020235,0.00133509,0.0000064
 9,-0.00001142,0.00011573,-0.00000199,-0.00002263,0.00001205,-0.0000103
 5,0.00000129,0.00000388,-0.00000143,0.00000126,-0.00001417,0.00000952,
 0.00001013,0.00000748,-0.00004532,0.00006194,0.00123905,-0.00000655,-0
 .00000117,0.00029646,-0.00006883,-0.00024038,-0.00008873,0.00005292,0.
 00019943,-0.00009809,0.00013358,-0.00021382,0.00021306,-0.00009918,0.0
 0005498,0.00001352,0.00014626,-0.00088002,0.01619791,-0.00214675,-0.00
 031162,-0.04388982,0.00530450,0.00852233,0.10162447,-0.00703256,-0.001
 56543,-0.00040536,0.01725007,0.00083891,0.00045306,-0.01598366,-0.0076
 4229,-0.00040203,-0.05072721,0.01994954,-0.00055224,0.00864791,0.00806
 841,0.00016727,0.01228605,-0.01402910,0.00010085,-0.01551511,0.0014470
 3,-0.00023414,0.00008328,0.00008616,0.00000704,0.00030606,-0.00008154,
 0.00001222,0.00019356,-0.00019548,-0.00000143,-0.01338732,-0.04107341,
 -0.00074633,-0.14583037,0.14416715,0.00011498,-0.00019861,0.02178546,0
 .00024892,0.00797124,-0.00780575,0.00001934,0.00279973,-0.00153533,0.0
 0002481,-0.00013700,0.00003738,-0.00000128,-0.00024106,0.00068327,0.00
 004764,-0.00788697,-0.00139546,-0.00005910,0.00025355,0.00117656,0.000
 12321,0.00070264,-0.00167167,-0.00003924,0.00026234,0.00119414,-0.0000
 8201,-0.00001852,0.00136986,0.00000757,-0.00017031,-0.00001897,-0.0000
 0265,-0.00004832,-0.00038777,0.00011607,-0.00004138,-0.00039146,-0.000
 13365,-0.25534440,-0.04653461,-0.00423454,-0.00603585,-0.01155296,-0.0
 0070837,-0.00739436,-0.00322013,-0.00006990,0.01128487,0.01554616,0.00
 037949,-0.00407071,0.00183498,-0.00005268,0.57804472,-0.00363729,-0.00
 304532,-0.00011793,0.00933251,-0.00364524,0.00011745,-0.00702660,-0.00
 276181,-0.00016984,0.01386851,0.01938917,0.00052466,0.00393903,0.00468
 490,0.00009272,0.00348321,-0.00355432,0.00005362,-0.00748591,0.0000188
 8,-0.00012424,0.00002146,0.00001095,0.00000040,-0.00013793,-0.00046809
 ,0.00002410,-0.00001964,-0.00001288,-0.00000089,-0.01474234,-0.0212603
 2,-0.00059557,0.14159599,-0.39558510,-0.00146936,-0.00283192,0.0058664
 6,0.00001867,0.00509882,-0.00411194,0.00001101,0.00167884,-0.00134465,
 0.00000695,-0.00009451,0.00004457,-0.00000111,-0.00038909,0.00052535,0
 .00000485,-0.00449494,0.00474761,-0.00004691,0.00080267,-0.00104633,0.
 00066018,0.00069533,-0.00127816,-0.00003275,0.00084439,-0.00110432,-0.
 00068511,-0.00007419,0.00069036,0.00000292,-0.00004501,-0.00001529,-0.
 00000047,-0.00001257,-0.00021964,0.00005307,-0.00000958,-0.00022129,-0
 .00006165,-0.01806966,-0.13498766,-0.00141517,-0.04867746,-0.07899690,
 -0.00185786,-0.00449055,-0.00156336,-0.00004472,0.00596072,0.00805546,
 0.00020088,-0.00164129,0.00143368,-0.00001684,0.03970551,0.92582363,-0
 .00013544,-0.00004699,0.00048874,0.00031592,-0.00006862,0.00130510,-0.
 00029175,-0.00014010,0.00137018,-0.00051331,0.00058445,-0.00531103,0.0
 0015931,0.00017026,-0.00014695,0.00025289,-0.00021467,-0.00046122,-0.0
 0031027,0.00001813,0.00006622,0.00000366,0.00000241,-0.00006093,0.0000
 0457,0.00000588,-0.00032467,0.00000283,-0.00000447,0.00005092,-0.00062
 718,-0.00111623,0.00783856,0.00007370,-0.00145305,-0.05908613,-0.00005
 639,0.00043551,0.00132810,0.00014798,-0.00015583,-0.00031818,0.0000521
 8,-0.00002586,-0.00006045,-0.00000309,0.00000115,0.00002024,-0.0000176
 8,0.00001309,0.00011692,-0.00024837,0.00002608,0.00124219,0.00008206,-
 0.00020101,-0.00008077,0.00002358,-0.00005821,0.00029753,-0.00003202,0
 .00024190,-0.00010045,-0.00000072,0.00001912,0.00001261,-0.00000198,0.
 00000016,-0.00001419,0.00000888,-0.00001035,0.00000730,-0.00001030,-0.
 00000164,0.00000319,-0.00401667,-0.00179002,-0.04397529,-0.00086898,-0
 .00130658,0.01612135,-0.00012229,-0.00004649,0.00001283,0.00020823,0.0
 0027878,0.00021756,-0.00007242,0.00003927,-0.00008263,0.00891597,0.010
 49664,0.10199389,0.00033854,0.00088707,0.00002289,-0.00035072,0.000193
 66,-0.00000621,0.00213165,0.00090110,0.00005483,0.00008981,-0.00000524
 ,0.00000008,-0.00055124,-0.00013235,-0.00005674,-0.00002063,0.00016736
 ,0.00000234,0.00040084,-0.00028376,0.00000120,-0.00077342,-0.00035341,
 -0.00005552,0.00001693,-0.00002513,0.00000093,0.00000959,0.00000366,0.
 00000018,-0.00010688,-0.00022386,-0.00001066,-0.00002209,0.00003416,0.
 00000006,-0.00000498,-0.00000363,-0.00000010,-0.00520364,-0.00247607,-
 0.00013653,0.01290480,-0.01050385,0.00002511,-0.00007769,0.00077647,0.
 00004710,0.00004931,0.00006800,-0.00000111,0.00000668,-0.00003687,-0.0
 0000060,-0.00000430,0.00000791,-0.00000227,0.00000238,-0.00000047,0.00
 000010,-0.00000421,0.00000802,0.00000269,0.00125690,0.00007751,0.00000
 283,-0.00013094,-0.00037791,-0.00000656,-0.00003735,0.00000555,0.00003
 007,-0.00003280,-0.00000159,-0.00003080,-0.00008135,0.00005021,0.00000
 059,-0.00010662,-0.00002938,-0.00000142,-0.00136599,-0.00472653,-0.000
 13118,-0.00842526,0.03024800,0.00026553,-0.10625790,0.10968516,0.00021
 173,-0.00002039,-0.00002148,-0.00000048,0.10638192,-0.00026225,0.00015
 481,-0.00000090,0.00040855,-0.00002015,0.00000385,-0.00056394,-0.00070
 611,-0.00001104,-0.00041384,0.00021298,-0.00000316,0.00002416,0.000457
 85,-0.00001523,0.00023161,-0.00026698,0.00000244,-0.00044429,-0.000031
 23,-0.00000745,-0.00019011,-0.00015371,-0.00007160,0.00000773,-0.00000
 472,-0.00000014,0.00001010,0.00001222,0.00000018,0.00023462,0.00019551
 ,0.00000445,0.00009468,0.00003846,0.00000222,-0.00000205,0.,0.00000004
 ,-0.00125341,0.00037350,-0.00004362,0.01395639,-0.00730617,0.00007542,
 -0.00025126,0.00040740,0.00003801,0.00002959,-0.00002953,-0.00000201,-
 0.00000337,-0.00001867,0.00000006,0.00000230,0.00000747,-0.00000137,-0
 .00001218,0.00000029,-0.00000030,0.00000221,0.00000773,0.00000190,0.00
 102673,-0.00002927,0.00000094,-0.00019673,-0.00032221,-0.00000732,-0.0
 0000998,0.00002751,-0.00000390,-0.00000554,0.00002112,0.00000498,0.000
 32183,-0.00044968,0.00000052,-0.00016366,0.00009434,-0.00000262,-0.002
 44030,-0.00241679,-0.00011827,-0.00140572,0.00559654,0.00008170,0.1152
 8356,-0.32003667,-0.00182914,-0.00010302,-0.00005820,-0.00000207,-0.12
 391242,0.32423749,-0.00000170,0.00000992,0.00036312,0.00000143,0.00000
 663,-0.00013256,0.00003849,0.00001284,-0.00059161,0.00000571,-0.000009
 79,-0.00001340,-0.00004273,0.00000054,-0.00006528,-0.00000558,0.000011
 75,-0.00001379,0.00001624,-0.00000397,-0.00011289,-0.00005702,-0.00009
 264,0.00032853,-0.00000019,-0.00000073,0.00001532,-0.00000012,-0.00000
 007,0.00003654,-0.00001721,-0.00001043,0.00021872,-0.00000178,-0.00000
 026,-0.00002344,-0.00000013,-0.00000005,0.00000413,-0.00012149,-0.0000
 5700,0.00303306,0.00028724,-0.00018972,0.00084036,0.00003720,0.0000495
 5,-0.00342008,0.00000151,0.00000274,0.00004711,-0.00000023,0.00000013,
 0.00001616,-0.00000389,-0.00000172,-0.00000020,0.00000054,0.,0.0000004
 2,0.00000384,0.00000127,-0.00000023,0.00001072,-0.00001856,0.00144746,
 -0.00000610,-0.00001330,-0.00003826,0.00014779,-0.00022209,-0.00006178
 ,-0.00014615,0.00022745,-0.00006203,-0.00000297,0.00001306,-0.00009346
 ,0.00000589,-0.00000256,-0.00011304,-0.00009504,-0.00013875,0.00575244
 ,-0.00007127,0.00043750,-0.00302482,0.00024503,-0.00191634,-0.02234851
 ,0.00000013,0.00000110,0.00001009,-0.00022805,0.00190344,0.01800550,0.
 00033450,-0.00089436,-0.00002449,-0.00036397,-0.00017973,0.00000019,0.
 00009829,-0.00000045,0.00000325,0.00212443,-0.00094993,0.00003399,-0.0
 0001732,-0.00016780,-0.00000107,-0.00056159,0.00013629,-0.00005392,0.0
 0041317,0.00029370,0.00001122,0.00001998,0.00002596,-0.00000034,-0.000
 84703,0.00037646,-0.00008466,0.00000904,-0.00000453,-0.00000117,-0.005
 14937,0.00256557,-0.00010667,0.01285659,0.01016504,0.00033829,-0.00008
 709,-0.00076617,0.00005016,-0.00012531,0.00022918,-0.00000138,-0.00002
 350,-0.00002944,0.00000020,-0.00000458,0.00000376,-0.00000016,0.000047
 42,-0.00006089,0.00000187,0.00124311,-0.00010168,-0.00001567,-0.000032
 73,0.00000128,-0.00002905,-0.00012214,0.00037554,0.00000688,-0.0000390
 1,-0.00000245,0.00003230,0.00000700,0.00003157,0.00000012,0.00000165,0
 .00000064,-0.00000004,-0.00000412,-0.00000662,0.00000172,-0.00000381,-
 0.00000673,-0.00000212,-0.00887531,-0.02997846,-0.00047056,-0.00122896
 ,0.00472440,-0.00006430,-0.00008885,0.00004002,0.00000174,-0.00008190,
 -0.00006172,-0.00000081,-0.00002195,0.00001982,-0.00000046,-0.11000193
 ,-0.11312505,-0.00292243,-0.00001095,0.00000002,-0.00000008,0.11053626
 ,0.00026116,0.00016614,0.00000664,-0.00040412,-0.00001110,-0.00000909,
 0.00041444,0.00020750,0.00000989,0.00052259,-0.00069788,0.00000780,-0.
 00023414,-0.00026153,-0.00000519,0.00001097,0.00043021,0.00002098,0.00
 043628,-0.00003851,0.00000739,-0.00000709,-0.00000480,-0.00000031,0.00
 021586,-0.00014718,0.00003336,-0.00000994,0.00001213,-0.00000011,0.001
 34525,0.00030898,-0.00001238,-0.01429923,-0.00724329,-0.00035447,0.000
 25926,0.00041755,0.00005004,-0.00023461,0.00019504,-0.00000310,-0.0000
 9424,0.00004525,-0.00000049,0.00000224,-0.00000004,-0.00000002,-0.0000
 3109,-0.00002490,-0.00000177,-0.00104739,-0.00001084,-0.00002166,0.000
 01155,0.00002792,-0.00000317,0.00019430,-0.00033117,-0.00000463,0.0000
 0549,0.00002014,0.00000452,0.00000305,-0.00002035,-0.00000020,0.000011
 73,0.00000005,0.00000024,-0.00000198,0.00000804,-0.00000166,-0.0000019
 9,0.00000809,0.00000189,0.00163972,0.00608718,0.00013775,0.00242525,-0
 .00254374,-0.00007025,0.00017334,0.00009227,0.00000290,-0.00032623,-0.
 00044549,-0.00001012,0.00009890,-0.00006216,0.00000119,-0.11868614,-0.
 31601019,-0.00569061,0.00000011,0.00000485,0.00000002,0.12734673,0.319
 82184,-0.00000513,-0.00001556,0.00036377,-0.00000240,0.00000125,-0.000
 13057,-0.00000943,-0.00001125,-0.00001396,0.00003918,-0.00000620,-0.00
 059832,0.00000784,0.00000776,-0.00001378,-0.00004603,-0.00002191,-0.00
 004084,-0.00000217,0.00000561,-0.00011096,0.00000011,0.00000011,0.0000
 1522,-0.00009031,0.00005854,0.00033524,-0.00000065,-0.00000030,0.00003
 547,-0.00009549,0.00000063,0.00304493,0.00006125,0.00011610,0.00085803
 ,0.00005930,0.00003363,-0.00341954,0.00001269,-0.00000637,0.00021792,0
 .00000332,-0.00000306,-0.00002330,-0.00000023,0.,0.00000424,-0.0000024
 0,0.00000057,0.00004712,-0.00001256,-0.00002762,0.00144286,-0.00015030
 ,-0.00021692,-0.00006657,0.00000514,-0.00000694,-0.00003918,0.00014929
 ,0.00022640,-0.00005661,-0.00000014,0.00000247,0.00001584,-0.00000036,
 -0.00000014,0.00000049,0.00000372,-0.00000229,0.00000006,-0.00000390,0
 .00000077,-0.00000044,-0.00005293,-0.00042349,-0.00304669,-0.00014686,
 -0.00000419,0.00575901,-0.00001079,-0.00000411,-0.00011391,0.00000862,
 0.00001827,-0.00009177,-0.00000219,0.00000243,0.00001010,-0.00301363,-
 0.00562880,-0.02248065,-0.00000003,-0.00000002,-0.00000355,0.00329746,
 0.00590464,0.01810033\\-0.00000620,0.00002269,0.00000145,0.00000717,-0
 .00002642,-0.00000130,-0.00003051,0.00002943,-0.00000043,0.00001695,0.
 00003950,-0.00000071,0.00000033,-0.00002083,-0.00000075,0.00001466,-0.
 00003917,-0.00000229,-0.00000852,-0.00001194,-0.00000176,0.00000376,0.
 00000079,0.00000036,0.00000284,-0.00000293,-0.00000331,0.00000408,0.00
 000013,-0.00000193,0.00001825,0.00001475,-0.00000127,0.00000955,0.0000
 2260,-0.00000278,-0.00000072,-0.00000451,-0.00000390,-0.00000574,0.000
 00642,0.00000200,-0.00000675,0.00003076,0.00000371,-0.00000039,0.00000
 475,0.00000433,-0.00000300,0.00000823,0.00000180,-0.00000381,0.0000001
 5,-0.00000147,-0.00000154,-0.00000341,-0.00000169,-0.00000155,-0.00000
 215,-0.00000065,-0.00000288,-0.00000404,-0.00000213,-0.00000098,0.0000
 0746,0.00000377,-0.00000406,0.00000210,0.00000316,-0.00000239,0.000003
 24,0.00000471,-0.00000376,0.00000247,0.00000389,-0.00000324,-0.0000360
 8,-0.00000274,-0.00002171,-0.00000352,-0.00000256,0.00001391,-0.000002
 84,0.00000343,0.00001633,-0.00001048,0.00000164,-0.00002086,-0.0000095
 3,0.00000200,0.00001736,-0.00001786,-0.00000293,0.00000147,0.00000365,
 0.00000243,0.00000196,-0.00000343,-0.00000409\\\@


 IT IS BY EATING THE LIGHT OF A STAR THAT WE EXIST, 
 IN THE FINAL ANALYSIS, 
 JUST AS IT IS BY PERCEIVING THE LIGHT OF STARS
 THAT WE DEFINE THE WORLD AROUND US.

                                    -- GILBERT GROSVENOR
 Job cpu time:       5 days  7 hours 45 minutes 28.2 seconds.
 Elapsed time:       0 days  2 hours 18 minutes  7.7 seconds.
 File lengths (MBytes):  RWF=   2046 Int=      0 D2E=      0 Chk=     68 Scr=      1
 Normal termination of Gaussian 16 at Sun Feb  8 19:25:19 2026.
