 Entering Gaussian System, Link 0=g16
 Input=15_1_t1.com
 Output=15_1_t1.log
 Initial command:
 /home/software/g16-shuai/g16/l1.exe "/tmp/zgshuai_229503/g16_tmp/Gau-603736.inp" -scrdir="/tmp/zgshuai_229503/g16_tmp/"
 Entering Link 1 = /home/software/g16-shuai/g16/l1.exe PID=    603737.
  
 Copyright (c) 1988-2019, Gaussian, Inc.  All Rights Reserved.
  
 This is part of the Gaussian(R) 16 program.  It is based on
 the Gaussian(R) 09 system (copyright 2009, Gaussian, Inc.),
 the Gaussian(R) 03 system (copyright 2003, Gaussian, Inc.),
 the Gaussian(R) 98 system (copyright 1998, Gaussian, Inc.),
 the Gaussian(R) 94 system (copyright 1995, Gaussian, Inc.),
 the Gaussian 92(TM) system (copyright 1992, Gaussian, Inc.),
 the Gaussian 90(TM) system (copyright 1990, Gaussian, Inc.),
 the Gaussian 88(TM) system (copyright 1988, Gaussian, Inc.),
 the Gaussian 86(TM) system (copyright 1986, Carnegie Mellon
 University), and the Gaussian 82(TM) system (copyright 1983,
 Carnegie Mellon University). Gaussian is a federally registered
 trademark of Gaussian, Inc.
  
 This software contains proprietary and confidential information,
 including trade secrets, belonging to Gaussian, Inc.
  
 This software is provided under written license and may be
 used, copied, transmitted, or stored only in accord with that
 written license.
  
 The following legend is applicable only to US Government
 contracts under FAR:
  
                    RESTRICTED RIGHTS LEGEND
  
 Use, reproduction and disclosure by the US Government is
 subject to restrictions as set forth in subparagraphs (a)
 and (c) of the Commercial Computer Software - Restricted
 Rights clause in FAR 52.227-19.
  
 Gaussian, Inc.
 340 Quinnipiac St., Bldg. 40, Wallingford CT 06492
  
  
 ---------------------------------------------------------------
 Warning -- This program may not be used in any manner that
 competes with the business of Gaussian, Inc. or will provide
 assistance to any competitor of Gaussian, Inc.  The licensee
 of this program is prohibited from giving any competitor of
 Gaussian, Inc. access to this program.  By using this program,
 the user acknowledges that Gaussian, Inc. is engaged in the
 business of creating and licensing software in the field of
 computational chemistry and represents and warrants to the
 licensee that it is not a competitor of Gaussian, Inc. and that
 it will not use this program in any manner prohibited above.
 ---------------------------------------------------------------
  

 Cite this work as:
 Gaussian 16, Revision C.01,
 M. J. Frisch, G. W. Trucks, H. B. Schlegel, G. E. Scuseria, 
 M. A. Robb, J. R. Cheeseman, G. Scalmani, V. Barone, 
 G. A. Petersson, H. Nakatsuji, X. Li, M. Caricato, A. V. Marenich, 
 J. Bloino, B. G. Janesko, R. Gomperts, B. Mennucci, H. P. Hratchian, 
 J. V. Ortiz, A. F. Izmaylov, J. L. Sonnenberg, D. Williams-Young, 
 F. Ding, F. Lipparini, F. Egidi, J. Goings, B. Peng, A. Petrone, 
 T. Henderson, D. Ranasinghe, V. G. Zakrzewski, J. Gao, N. Rega, 
 G. Zheng, W. Liang, M. Hada, M. Ehara, K. Toyota, R. Fukuda, 
 J. Hasegawa, M. Ishida, T. Nakajima, Y. Honda, O. Kitao, H. Nakai, 
 T. Vreven, K. Throssell, J. A. Montgomery, Jr., J. E. Peralta, 
 F. Ogliaro, M. J. Bearpark, J. J. Heyd, E. N. Brothers, K. N. Kudin, 
 V. N. Staroverov, T. A. Keith, R. Kobayashi, J. Normand, 
 K. Raghavachari, A. P. Rendell, J. C. Burant, S. S. Iyengar, 
 J. Tomasi, M. Cossi, J. M. Millam, M. Klene, C. Adamo, R. Cammi, 
 J. W. Ochterski, R. L. Martin, K. Morokuma, O. Farkas, 
 J. B. Foresman, and D. J. Fox, Gaussian, Inc., Wallingford CT, 2019.
 
 ******************************************
 Gaussian 16:  ES64L-G16RevC.01  3-Jul-2019
                 8-Feb-2026 
 ******************************************
 %nprocshared=56
 Will use up to   56 processors via shared memory.
 %mem=120GB
 %chk=t1_opt.chk
 ----------------------------------------------------------------------
 #p opt=calcall TPSSh/def2svp scrf=solvent=CH2Cl2 empiricaldispersion=g
 d3bj IOp(3/174=1000000,3/175=2238200,3/177=452900,3/178=4655000) nosym
 m
 ----------------------------------------------------------------------
 1/10=4,18=20,19=15,26=3,38=1/1,3;
 2/9=110,12=2,15=1,17=6,18=5,40=1/2;
 3/5=43,7=101,11=2,25=1,30=1,70=2201,71=2,72=9,74=-35,124=41,140=1,174=1000000,175=2238200,177=452900,178=4655000/1,2,3;
 4//1;
 5/5=2,38=5,53=9/2;
 8/6=4,10=90,11=11/1;
 11/6=1,8=1,9=11,15=111,16=1,31=1/1,2,10;
 10/6=1,31=1/2;
 6/7=2,8=2,9=2,10=2,18=1,28=1/1;
 7/10=1,25=1,30=1/1,2,3,16;
 1/10=4,18=20,19=15,26=3/3(3);
 2/9=110,15=1/2;
 7/8=1,9=1,25=1,30=1,44=-1/16;
 99//99;
 2/9=110,15=1/2;
 3/5=43,7=101,11=2,25=1,30=1,70=2205,71=2,72=9,74=-35,124=41,140=1,174=1000000,175=2238200,177=452900,178=4655000/1,2,3;
 4/5=5,16=3,69=1/1;
 5/5=2,38=5,53=9/2;
 8/6=4,10=90,11=11/1;
 11/6=1,8=1,9=11,15=111,16=1,31=1/1,2,10;
 10/6=1,31=1/2;
 7/10=1,25=1,30=1/1,2,3,16;
 1/10=4,18=20,19=15,26=3/3(-8);
 2/9=110,15=1/2;
 6/7=2,8=2,9=2,10=2,18=1,19=2,28=1/1;
 7/8=1,9=1,25=1,30=1,44=-1/16;
 99//99;
 Leave Link    1 at Sun Feb  8 17:04:55 2026, MaxMem= 16106127360 cpu:               1.1 elap:               0.0
 (Enter /home/software/g16-shuai/g16/l101.exe)
 -----------
 test2-t1opt
 -----------
 Symbolic Z-matrix:
 Charge =  0 Multiplicity = 3
 Pt                    0.48596  -0.41134  -0.01371 
 C                     0.50197   1.53842   0.00327 
 C                    -0.70006   2.24983  -0.00819 
 C                     1.71545   2.22972   0.03112 
 C                    -0.71202   3.64781   0.00748 
 C                     1.74994   3.62732   0.04742 
 C                     0.52449   4.31664   0.03512 
 H                    -1.64389   4.21566  -0.0006 
 H                     2.69077   4.1797    0.06927 
 H                     0.53342   5.40829   0.04774 
 C                     2.5019   -0.02773   0.02128 
 C                     4.74278   0.28489   0.05575 
 H                     5.78563  -0.01723   0.06707 
 C                    -1.5234    0.00572  -0.04252 
 C                    -3.7588    0.35597  -0.07339 
 H                    -4.80649   0.07146  -0.0917 
 Cl                    0.46723  -2.86986  -0.02052 
 C                     3.90088  -2.09011   0.01775 
 H                     4.45482  -2.39675   0.91594 
 H                     2.9105   -2.56367   0.00455 
 H                     4.46939  -2.3776   -0.87773 
 C                    -2.95592  -2.03296  -0.08114 
 H                    -1.9735   -2.52287  -0.06749 
 H                    -3.53748  -2.32753   0.80356 
 H                    -3.50627  -2.31389  -0.98993 
 N                     2.80873   1.32329   0.03937 
 N                     3.70813  -0.64314   0.03178 
 N                    -2.73961  -0.58934  -0.06615 
 N                    -1.80791   1.36169  -0.03477 
 C                    -3.17112   1.58729  -0.05354 
 C                     4.17557   1.52592   0.06062 
 H                    -3.60616   2.58152  -0.05155 
 H                     4.6274    2.51254   0.07714 
 
 ITRead=  0  0  0  0  0  0  0  0  0  0  0  0  0  0  0  0  0  0  0  0
 ITRead=  0  0  0  0  0  0  0  0  0  0  0  0  0
 MicOpt= -1 -1 -1 -1 -1 -1 -1 -1 -1 -1 -1 -1 -1 -1 -1 -1 -1 -1 -1 -1
 MicOpt= -1 -1 -1 -1 -1 -1 -1 -1 -1 -1 -1 -1 -1
 NAtoms=     33 NQM=       33 NQMF=       0 NMMI=      0 NMMIF=      0
                NMic=       0 NMicF=      0.
                    Isotopes and Nuclear Properties:
 (Nuclear quadrupole moments (NQMom) in fm**2, nuclear magnetic moments (NMagM)
  in nuclear magnetons)

  Atom         1           2           3           4           5           6           7           8           9          10
 IAtWgt=         195          12          12          12          12          12          12           1           1           1
 AtmWgt= 194.9648000  12.0000000  12.0000000  12.0000000  12.0000000  12.0000000  12.0000000   1.0078250   1.0078250   1.0078250
 NucSpn=           1           0           0           0           0           0           0           1           1           1
 AtZEff=  -0.0000000  -0.0000000  -0.0000000  -0.0000000  -0.0000000  -0.0000000  -0.0000000  -0.0000000  -0.0000000  -0.0000000
 NQMom=    0.0000000   0.0000000   0.0000000   0.0000000   0.0000000   0.0000000   0.0000000   0.0000000   0.0000000   0.0000000
 NMagM=    0.6095000   0.0000000   0.0000000   0.0000000   0.0000000   0.0000000   0.0000000   2.7928460   2.7928460   2.7928460
 AtZNuc=  78.0000000   6.0000000   6.0000000   6.0000000   6.0000000   6.0000000   6.0000000   1.0000000   1.0000000   1.0000000

  Atom        11          12          13          14          15          16          17          18          19          20
 IAtWgt=          12          12           1          12          12           1          35          12           1           1
 AtmWgt=  12.0000000  12.0000000   1.0078250  12.0000000  12.0000000   1.0078250  34.9688527  12.0000000   1.0078250   1.0078250
 NucSpn=           0           0           1           0           0           1           3           0           1           1
 AtZEff=  -0.0000000  -0.0000000  -0.0000000  -0.0000000  -0.0000000  -0.0000000  -0.0000000  -0.0000000  -0.0000000  -0.0000000
 NQMom=    0.0000000   0.0000000   0.0000000   0.0000000   0.0000000   0.0000000  -8.1650000   0.0000000   0.0000000   0.0000000
 NMagM=    0.0000000   0.0000000   2.7928460   0.0000000   0.0000000   2.7928460   0.8218740   0.0000000   2.7928460   2.7928460
 AtZNuc=   6.0000000   6.0000000   1.0000000   6.0000000   6.0000000   1.0000000  17.0000000   6.0000000   1.0000000   1.0000000

  Atom        21          22          23          24          25          26          27          28          29          30
 IAtWgt=           1          12           1           1           1          14          14          14          14          12
 AtmWgt=   1.0078250  12.0000000   1.0078250   1.0078250   1.0078250  14.0030740  14.0030740  14.0030740  14.0030740  12.0000000
 NucSpn=           1           0           1           1           1           2           2           2           2           0
 AtZEff=  -0.0000000  -0.0000000  -0.0000000  -0.0000000  -0.0000000  -0.0000000  -0.0000000  -0.0000000  -0.0000000  -0.0000000
 NQMom=    0.0000000   0.0000000   0.0000000   0.0000000   0.0000000   2.0440000   2.0440000   2.0440000   2.0440000   0.0000000
 NMagM=    2.7928460   0.0000000   2.7928460   2.7928460   2.7928460   0.4037610   0.4037610   0.4037610   0.4037610   0.0000000
 AtZNuc=   1.0000000   6.0000000   1.0000000   1.0000000   1.0000000   7.0000000   7.0000000   7.0000000   7.0000000   6.0000000

  Atom        31          32          33
 IAtWgt=          12           1           1
 AtmWgt=  12.0000000   1.0078250   1.0078250
 NucSpn=           0           1           1
 AtZEff=  -0.0000000  -0.0000000  -0.0000000
 NQMom=    0.0000000   0.0000000   0.0000000
 NMagM=    0.0000000   2.7928460   2.7928460
 AtZNuc=   6.0000000   1.0000000   1.0000000
 Leave Link  101 at Sun Feb  8 17:04:55 2026, MaxMem= 16106127360 cpu:              14.7 elap:               0.3
 (Enter /home/software/g16-shuai/g16/l103.exe)

 GradGradGradGradGradGradGradGradGradGradGradGradGradGradGradGradGradGrad
 Berny optimization.
 Initialization pass.
                           ----------------------------
                           !    Initial Parameters    !
                           ! (Angstroms and Degrees)  !
 --------------------------                            --------------------------
 ! Name  Definition              Value          Derivative Info.                !
 --------------------------------------------------------------------------------
 ! R1    R(1,2)                  1.9499         calculate D2E/DX2 analytically  !
 ! R2    R(1,11)                 2.0524         calculate D2E/DX2 analytically  !
 ! R3    R(1,14)                 2.0524         calculate D2E/DX2 analytically  !
 ! R4    R(1,17)                 2.4586         calculate D2E/DX2 analytically  !
 ! R5    R(2,3)                  1.3968         calculate D2E/DX2 analytically  !
 ! R6    R(2,4)                  1.3969         calculate D2E/DX2 analytically  !
 ! R7    R(3,5)                  1.3981         calculate D2E/DX2 analytically  !
 ! R8    R(3,29)                 1.4202         calculate D2E/DX2 analytically  !
 ! R9    R(4,6)                  1.3981         calculate D2E/DX2 analytically  !
 ! R10   R(4,26)                 1.4202         calculate D2E/DX2 analytically  !
 ! R11   R(5,7)                  1.4061         calculate D2E/DX2 analytically  !
 ! R12   R(5,8)                  1.0913         calculate D2E/DX2 analytically  !
 ! R13   R(6,7)                  1.4061         calculate D2E/DX2 analytically  !
 ! R14   R(6,9)                  1.0912         calculate D2E/DX2 analytically  !
 ! R15   R(7,10)                 1.0918         calculate D2E/DX2 analytically  !
 ! R16   R(11,26)                1.3855         calculate D2E/DX2 analytically  !
 ! R17   R(11,27)                1.3542         calculate D2E/DX2 analytically  !
 ! R18   R(12,13)                1.0858         calculate D2E/DX2 analytically  !
 ! R19   R(12,27)                1.3901         calculate D2E/DX2 analytically  !
 ! R20   R(12,31)                1.3645         calculate D2E/DX2 analytically  !
 ! R21   R(14,28)                1.3542         calculate D2E/DX2 analytically  !
 ! R22   R(14,29)                1.3855         calculate D2E/DX2 analytically  !
 ! R23   R(15,16)                1.0858         calculate D2E/DX2 analytically  !
 ! R24   R(15,28)                1.3901         calculate D2E/DX2 analytically  !
 ! R25   R(15,30)                1.3645         calculate D2E/DX2 analytically  !
 ! R26   R(18,19)                1.0989         calculate D2E/DX2 analytically  !
 ! R27   R(18,20)                1.0979         calculate D2E/DX2 analytically  !
 ! R28   R(18,21)                1.099          calculate D2E/DX2 analytically  !
 ! R29   R(18,27)                1.4598         calculate D2E/DX2 analytically  !
 ! R30   R(22,23)                1.0979         calculate D2E/DX2 analytically  !
 ! R31   R(22,24)                1.0989         calculate D2E/DX2 analytically  !
 ! R32   R(22,25)                1.099          calculate D2E/DX2 analytically  !
 ! R33   R(22,28)                1.4598         calculate D2E/DX2 analytically  !
 ! R34   R(26,31)                1.3819         calculate D2E/DX2 analytically  !
 ! R35   R(29,30)                1.3819         calculate D2E/DX2 analytically  !
 ! R36   R(30,32)                1.0852         calculate D2E/DX2 analytically  !
 ! R37   R(31,33)                1.0853         calculate D2E/DX2 analytically  !
 ! A1    A(2,1,11)              78.749          calculate D2E/DX2 analytically  !
 ! A2    A(2,1,14)              78.7534         calculate D2E/DX2 analytically  !
 ! A3    A(11,1,14)            157.5024         calculate D2E/DX2 analytically  !
 ! A4    A(11,1,17)            101.2115         calculate D2E/DX2 analytically  !
 ! A5    A(14,1,17)            101.2858         calculate D2E/DX2 analytically  !
 ! A6    A(1,2,3)              120.1412         calculate D2E/DX2 analytically  !
 ! A7    A(1,2,4)              120.1436         calculate D2E/DX2 analytically  !
 ! A8    A(3,2,4)              119.715          calculate D2E/DX2 analytically  !
 ! A9    A(2,3,5)              121.0994         calculate D2E/DX2 analytically  !
 ! A10   A(2,3,29)             110.6677         calculate D2E/DX2 analytically  !
 ! A11   A(5,3,29)             128.2328         calculate D2E/DX2 analytically  !
 ! A12   A(2,4,6)              121.0895         calculate D2E/DX2 analytically  !
 ! A13   A(2,4,26)             110.6711         calculate D2E/DX2 analytically  !
 ! A14   A(6,4,26)             128.2394         calculate D2E/DX2 analytically  !
 ! A15   A(3,5,7)              117.9254         calculate D2E/DX2 analytically  !
 ! A16   A(3,5,8)              121.8381         calculate D2E/DX2 analytically  !
 ! A17   A(7,5,8)              120.2366         calculate D2E/DX2 analytically  !
 ! A18   A(4,6,7)              117.9344         calculate D2E/DX2 analytically  !
 ! A19   A(4,6,9)              121.8379         calculate D2E/DX2 analytically  !
 ! A20   A(7,6,9)              120.2277         calculate D2E/DX2 analytically  !
 ! A21   A(5,7,6)              122.2364         calculate D2E/DX2 analytically  !
 ! A22   A(5,7,10)             118.8844         calculate D2E/DX2 analytically  !
 ! A23   A(6,7,10)             118.8793         calculate D2E/DX2 analytically  !
 ! A24   A(1,11,26)            113.5775         calculate D2E/DX2 analytically  !
 ! A25   A(1,11,27)            142.1951         calculate D2E/DX2 analytically  !
 ! A26   A(26,11,27)           104.2273         calculate D2E/DX2 analytically  !
 ! A27   A(13,12,27)           121.9577         calculate D2E/DX2 analytically  !
 ! A28   A(13,12,31)           130.7135         calculate D2E/DX2 analytically  !
 ! A29   A(27,12,31)           107.3288         calculate D2E/DX2 analytically  !
 ! A30   A(1,14,28)            142.2073         calculate D2E/DX2 analytically  !
 ! A31   A(1,14,29)            113.5679         calculate D2E/DX2 analytically  !
 ! A32   A(28,14,29)           104.2247         calculate D2E/DX2 analytically  !
 ! A33   A(16,15,28)           121.9613         calculate D2E/DX2 analytically  !
 ! A34   A(16,15,30)           130.7132         calculate D2E/DX2 analytically  !
 ! A35   A(28,15,30)           107.3255         calculate D2E/DX2 analytically  !
 ! A36   A(19,18,20)           110.1326         calculate D2E/DX2 analytically  !
 ! A37   A(19,18,21)           109.4045         calculate D2E/DX2 analytically  !
 ! A38   A(19,18,27)           109.5898         calculate D2E/DX2 analytically  !
 ! A39   A(20,18,21)           110.1226         calculate D2E/DX2 analytically  !
 ! A40   A(20,18,27)           107.9723         calculate D2E/DX2 analytically  !
 ! A41   A(21,18,27)           109.5988         calculate D2E/DX2 analytically  !
 ! A42   A(23,22,24)           110.1161         calculate D2E/DX2 analytically  !
 ! A43   A(23,22,25)           110.1412         calculate D2E/DX2 analytically  !
 ! A44   A(23,22,28)           107.9725         calculate D2E/DX2 analytically  !
 ! A45   A(24,22,25)           109.4022         calculate D2E/DX2 analytically  !
 ! A46   A(24,22,28)           109.5861         calculate D2E/DX2 analytically  !
 ! A47   A(25,22,28)           109.6026         calculate D2E/DX2 analytically  !
 ! A48   A(4,26,11)            116.8586         calculate D2E/DX2 analytically  !
 ! A49   A(4,26,31)            131.9056         calculate D2E/DX2 analytically  !
 ! A50   A(11,26,31)           111.2357         calculate D2E/DX2 analytically  !
 ! A51   A(11,27,12)           111.0834         calculate D2E/DX2 analytically  !
 ! A52   A(11,27,18)           124.6098         calculate D2E/DX2 analytically  !
 ! A53   A(12,27,18)           124.3068         calculate D2E/DX2 analytically  !
 ! A54   A(14,28,15)           111.0844         calculate D2E/DX2 analytically  !
 ! A55   A(14,28,22)           124.5974         calculate D2E/DX2 analytically  !
 ! A56   A(15,28,22)           124.3182         calculate D2E/DX2 analytically  !
 ! A57   A(3,29,14)            116.8697         calculate D2E/DX2 analytically  !
 ! A58   A(3,29,30)            131.8906         calculate D2E/DX2 analytically  !
 ! A59   A(14,29,30)           111.2397         calculate D2E/DX2 analytically  !
 ! A60   A(15,30,29)           106.1257         calculate D2E/DX2 analytically  !
 ! A61   A(15,30,32)           130.8502         calculate D2E/DX2 analytically  !
 ! A62   A(29,30,32)           123.0241         calculate D2E/DX2 analytically  !
 ! A63   A(12,31,26)           106.1248         calculate D2E/DX2 analytically  !
 ! A64   A(12,31,33)           130.8296         calculate D2E/DX2 analytically  !
 ! A65   A(26,31,33)           123.0456         calculate D2E/DX2 analytically  !
 ! A66   L(2,1,17,11,-1)       179.9605         calculate D2E/DX2 analytically  !
 ! A67   L(2,1,17,11,-2)       179.6537         calculate D2E/DX2 analytically  !
 ! D1    D(11,1,2,3)          -179.9366         calculate D2E/DX2 analytically  !
 ! D2    D(11,1,2,4)            -0.1346         calculate D2E/DX2 analytically  !
 ! D3    D(14,1,2,3)             0.086          calculate D2E/DX2 analytically  !
 ! D4    D(14,1,2,4)           179.888          calculate D2E/DX2 analytically  !
 ! D5    D(2,1,11,26)            0.0755         calculate D2E/DX2 analytically  !
 ! D6    D(2,1,11,27)         -179.7801         calculate D2E/DX2 analytically  !
 ! D7    D(14,1,11,26)           0.1334         calculate D2E/DX2 analytically  !
 ! D8    D(14,1,11,27)        -179.7222         calculate D2E/DX2 analytically  !
 ! D9    D(17,1,11,26)        -179.5782         calculate D2E/DX2 analytically  !
 ! D10   D(17,1,11,27)           0.5662         calculate D2E/DX2 analytically  !
 ! D11   D(2,1,14,28)         -179.9257         calculate D2E/DX2 analytically  !
 ! D12   D(2,1,14,29)           -0.0319         calculate D2E/DX2 analytically  !
 ! D13   D(11,1,14,28)        -179.9835         calculate D2E/DX2 analytically  !
 ! D14   D(11,1,14,29)          -0.0897         calculate D2E/DX2 analytically  !
 ! D15   D(17,1,14,28)          -0.272          calculate D2E/DX2 analytically  !
 ! D16   D(17,1,14,29)         179.6218         calculate D2E/DX2 analytically  !
 ! D17   D(1,2,3,5)            179.8163         calculate D2E/DX2 analytically  !
 ! D18   D(1,2,3,29)            -0.1189         calculate D2E/DX2 analytically  !
 ! D19   D(4,2,3,5)              0.0135         calculate D2E/DX2 analytically  !
 ! D20   D(4,2,3,29)          -179.9218         calculate D2E/DX2 analytically  !
 ! D21   D(1,2,4,6)           -179.8224         calculate D2E/DX2 analytically  !
 ! D22   D(1,2,4,26)             0.1617         calculate D2E/DX2 analytically  !
 ! D23   D(3,2,4,6)             -0.0195         calculate D2E/DX2 analytically  !
 ! D24   D(3,2,4,26)           179.9645         calculate D2E/DX2 analytically  !
 ! D25   D(2,3,5,7)              0.002          calculate D2E/DX2 analytically  !
 ! D26   D(2,3,5,8)           -179.9618         calculate D2E/DX2 analytically  !
 ! D27   D(29,3,5,7)           179.9249         calculate D2E/DX2 analytically  !
 ! D28   D(29,3,5,8)            -0.0388         calculate D2E/DX2 analytically  !
 ! D29   D(2,3,29,14)            0.0862         calculate D2E/DX2 analytically  !
 ! D30   D(2,3,29,30)          179.9857         calculate D2E/DX2 analytically  !
 ! D31   D(5,3,29,14)         -179.8433         calculate D2E/DX2 analytically  !
 ! D32   D(5,3,29,30)            0.0562         calculate D2E/DX2 analytically  !
 ! D33   D(2,4,6,7)              0.0097         calculate D2E/DX2 analytically  !
 ! D34   D(2,4,6,9)            179.9955         calculate D2E/DX2 analytically  !
 ! D35   D(26,4,6,7)          -179.9713         calculate D2E/DX2 analytically  !
 ! D36   D(26,4,6,9)             0.0145         calculate D2E/DX2 analytically  !
 ! D37   D(2,4,26,11)           -0.0883         calculate D2E/DX2 analytically  !
 ! D38   D(2,4,26,31)          179.7897         calculate D2E/DX2 analytically  !
 ! D39   D(6,4,26,11)          179.8943         calculate D2E/DX2 analytically  !
 ! D40   D(6,4,26,31)           -0.2277         calculate D2E/DX2 analytically  !
 ! D41   D(3,5,7,6)             -0.0121         calculate D2E/DX2 analytically  !
 ! D42   D(3,5,7,10)          -179.9948         calculate D2E/DX2 analytically  !
 ! D43   D(8,5,7,6)            179.9523         calculate D2E/DX2 analytically  !
 ! D44   D(8,5,7,10)            -0.0304         calculate D2E/DX2 analytically  !
 ! D45   D(4,6,7,5)              0.0064         calculate D2E/DX2 analytically  !
 ! D46   D(4,6,7,10)           179.989          calculate D2E/DX2 analytically  !
 ! D47   D(9,6,7,5)           -179.9797         calculate D2E/DX2 analytically  !
 ! D48   D(9,6,7,10)             0.003          calculate D2E/DX2 analytically  !
 ! D49   D(1,11,26,4)           -0.0126         calculate D2E/DX2 analytically  !
 ! D50   D(1,11,26,31)        -179.9152         calculate D2E/DX2 analytically  !
 ! D51   D(27,11,26,4)         179.896          calculate D2E/DX2 analytically  !
 ! D52   D(27,11,26,31)         -0.0065         calculate D2E/DX2 analytically  !
 ! D53   D(1,11,27,12)         179.8667         calculate D2E/DX2 analytically  !
 ! D54   D(1,11,27,18)          -0.0453         calculate D2E/DX2 analytically  !
 ! D55   D(26,11,27,12)          0.0032         calculate D2E/DX2 analytically  !
 ! D56   D(26,11,27,18)       -179.9087         calculate D2E/DX2 analytically  !
 ! D57   D(13,12,27,11)       -179.9925         calculate D2E/DX2 analytically  !
 ! D58   D(13,12,27,18)         -0.0802         calculate D2E/DX2 analytically  !
 ! D59   D(31,12,27,11)          0.0012         calculate D2E/DX2 analytically  !
 ! D60   D(31,12,27,18)        179.9134         calculate D2E/DX2 analytically  !
 ! D61   D(13,12,31,26)        179.9878         calculate D2E/DX2 analytically  !
 ! D62   D(13,12,31,33)         -0.0119         calculate D2E/DX2 analytically  !
 ! D63   D(27,12,31,26)         -0.0051         calculate D2E/DX2 analytically  !
 ! D64   D(27,12,31,33)        179.9952         calculate D2E/DX2 analytically  !
 ! D65   D(1,14,28,15)         179.9111         calculate D2E/DX2 analytically  !
 ! D66   D(1,14,28,22)          -0.0483         calculate D2E/DX2 analytically  !
 ! D67   D(29,14,28,15)          0.0115         calculate D2E/DX2 analytically  !
 ! D68   D(29,14,28,22)       -179.9479         calculate D2E/DX2 analytically  !
 ! D69   D(1,14,29,3)           -0.0225         calculate D2E/DX2 analytically  !
 ! D70   D(1,14,29,30)        -179.9422         calculate D2E/DX2 analytically  !
 ! D71   D(28,14,29,3)         179.9104         calculate D2E/DX2 analytically  !
 ! D72   D(28,14,29,30)         -0.0094         calculate D2E/DX2 analytically  !
 ! D73   D(16,15,28,14)       -179.9962         calculate D2E/DX2 analytically  !
 ! D74   D(16,15,28,22)         -0.0366         calculate D2E/DX2 analytically  !
 ! D75   D(30,15,28,14)         -0.0097         calculate D2E/DX2 analytically  !
 ! D76   D(30,15,28,22)        179.9498         calculate D2E/DX2 analytically  !
 ! D77   D(16,15,30,29)        179.9883         calculate D2E/DX2 analytically  !
 ! D78   D(16,15,30,32)         -0.0244         calculate D2E/DX2 analytically  !
 ! D79   D(28,15,30,29)          0.0035         calculate D2E/DX2 analytically  !
 ! D80   D(28,15,30,32)        179.9908         calculate D2E/DX2 analytically  !
 ! D81   D(19,18,27,11)       -120.3429         calculate D2E/DX2 analytically  !
 ! D82   D(19,18,27,12)         59.7566         calculate D2E/DX2 analytically  !
 ! D83   D(20,18,27,11)         -0.3742         calculate D2E/DX2 analytically  !
 ! D84   D(20,18,27,12)        179.7252         calculate D2E/DX2 analytically  !
 ! D85   D(21,18,27,11)        119.5876         calculate D2E/DX2 analytically  !
 ! D86   D(21,18,27,12)        -60.313          calculate D2E/DX2 analytically  !
 ! D87   D(23,22,28,14)          0.131          calculate D2E/DX2 analytically  !
 ! D88   D(23,22,28,15)       -179.8231         calculate D2E/DX2 analytically  !
 ! D89   D(24,22,28,14)        120.0776         calculate D2E/DX2 analytically  !
 ! D90   D(24,22,28,15)        -59.8765         calculate D2E/DX2 analytically  !
 ! D91   D(25,22,28,14)       -119.8556         calculate D2E/DX2 analytically  !
 ! D92   D(25,22,28,15)         60.1903         calculate D2E/DX2 analytically  !
 ! D93   D(4,26,31,12)        -179.8759         calculate D2E/DX2 analytically  !
 ! D94   D(4,26,31,33)           0.1239         calculate D2E/DX2 analytically  !
 ! D95   D(11,26,31,12)          0.0074         calculate D2E/DX2 analytically  !
 ! D96   D(11,26,31,33)       -179.9929         calculate D2E/DX2 analytically  !
 ! D97   D(3,29,30,15)        -179.9001         calculate D2E/DX2 analytically  !
 ! D98   D(3,29,30,32)           0.1113         calculate D2E/DX2 analytically  !
 ! D99   D(14,29,30,15)          0.0037         calculate D2E/DX2 analytically  !
 ! D100  D(14,29,30,32)       -179.9848         calculate D2E/DX2 analytically  !
 --------------------------------------------------------------------------------
 Trust Radius=3.00D-01 FncErr=1.00D-07 GrdErr=1.00D-06 EigMax=2.50D+02 EigMin=1.00D-04
 Number of steps in this run=    198 maximum allowed number of steps=    198.
 GradGradGradGradGradGradGradGradGradGradGradGradGradGradGradGradGradGrad

 Leave Link  103 at Sun Feb  8 17:04:55 2026, MaxMem= 16106127360 cpu:               0.5 elap:               0.0
 (Enter /home/software/g16-shuai/g16/l202.exe)
                          Input orientation:                          
 ---------------------------------------------------------------------
 Center     Atomic      Atomic             Coordinates (Angstroms)
 Number     Number       Type             X           Y           Z
 ---------------------------------------------------------------------
      1         78           0        0.485960   -0.411340   -0.013710
      2          6           0        0.501970    1.538420    0.003270
      3          6           0       -0.700060    2.249830   -0.008190
      4          6           0        1.715450    2.229720    0.031120
      5          6           0       -0.712020    3.647810    0.007480
      6          6           0        1.749940    3.627320    0.047420
      7          6           0        0.524490    4.316640    0.035120
      8          1           0       -1.643890    4.215660   -0.000600
      9          1           0        2.690770    4.179700    0.069270
     10          1           0        0.533420    5.408290    0.047740
     11          6           0        2.501900   -0.027730    0.021280
     12          6           0        4.742780    0.284890    0.055750
     13          1           0        5.785630   -0.017230    0.067070
     14          6           0       -1.523400    0.005720   -0.042520
     15          6           0       -3.758800    0.355970   -0.073390
     16          1           0       -4.806490    0.071460   -0.091700
     17         17           0        0.467230   -2.869860   -0.020520
     18          6           0        3.900880   -2.090110    0.017750
     19          1           0        4.454820   -2.396750    0.915940
     20          1           0        2.910500   -2.563670    0.004550
     21          1           0        4.469390   -2.377600   -0.877730
     22          6           0       -2.955920   -2.032960   -0.081140
     23          1           0       -1.973500   -2.522870   -0.067490
     24          1           0       -3.537480   -2.327530    0.803560
     25          1           0       -3.506270   -2.313890   -0.989930
     26          7           0        2.808730    1.323290    0.039370
     27          7           0        3.708130   -0.643140    0.031780
     28          7           0       -2.739610   -0.589340   -0.066150
     29          7           0       -1.807910    1.361690   -0.034770
     30          6           0       -3.171120    1.587290   -0.053540
     31          6           0        4.175570    1.525920    0.060620
     32          1           0       -3.606160    2.581520   -0.051550
     33          1           0        4.627400    2.512540    0.077140
 ---------------------------------------------------------------------
                    Distance matrix (angstroms):
                    1          2          3          4          5
     1  Pt   0.000000
     2  C    1.949900   0.000000
     3  C    2.913503   1.396822   0.000000
     4  C    2.913564   1.396855   2.415914   0.000000
     5  C    4.232293   2.433786   1.398119   2.811432   0.000000
     6  C    4.232276   2.433697   2.811240   1.398121   2.462369
     7  C    4.728389   2.778494   2.402728   2.402839   1.406078
     8  H    5.093679   3.431085   2.180679   3.902580   1.091284
     9  H    5.093694   3.430971   3.902323   2.180625   3.444663
    10  H    5.820148   3.870253   3.391234   3.391280   2.156857
    11  C    2.052412   2.540250   3.929465   2.390540   4.882527
    12  C    4.313940   4.422506   5.787019   3.598291   6.408307
    13  H    5.314918   5.508283   6.870910   4.649349   7.460263
    14  C    2.052388   2.540352   2.390627   3.929599   3.731710
    15  C    4.313967   4.422468   3.598173   5.786992   4.486159
    16  H    5.314998   5.508243   4.649197   6.870871   5.437352
    17  Cl   2.458601   4.408481   5.251090   5.250375   6.623552
    18  C    3.805383   4.971823   6.324903   4.841200   7.362247
    19  H    4.534088   5.651863   7.001251   5.448970   8.003639
    20  H    3.242106   4.756907   6.017149   4.940186   7.190629
    21  H    4.525530   5.643739   6.992312   5.444042   7.996010
    22  C    3.805356   4.971809   4.841128   6.324930   6.108526
    23  H    3.241974   4.756788   4.940023   6.017075   6.298749
    24  H    4.530760   5.648291   5.446294   6.997033   6.657451
    25  H    4.528863   5.647365   5.446666   6.996663   6.659169
    26  N    2.899486   2.317051   3.629373   1.420192   4.219015
    27  N    3.230817   3.878077   5.272856   3.496298   6.160403
    28  N    3.230903   3.878147   3.496285   5.272961   4.697870
    29  N    2.899296   2.316943   1.420152   3.629309   2.535568
    30  C    4.167774   3.673854   2.558741   4.929346   3.208838
    31  C    4.167940   3.674069   4.929559   2.558983   5.328581
    32  H    5.069920   4.238844   2.925289   5.333866   3.084883
    33  H    5.070390   4.239521   5.334616   2.926014   5.459221
                    6          7          8          9         10
     6  C    0.000000
     7  C    1.406073   0.000000
     8  H    3.444783   2.171024   0.000000
     9  H    1.091220   2.170873   4.335372   0.000000
    10  H    2.156797   1.091759   2.483019   2.482752   0.000000
    11  C    3.731691   4.773248   5.932488   4.211940   5.781516
    12  C    4.486535   5.835187   7.499579   4.402326   6.630837
    13  H    5.437824   6.816381   8.551006   5.214632   7.551315
    14  C    4.882502   4.773250   4.211872   5.932439   5.781558
    15  C    6.408006   5.834831   4.401744   7.499214   6.630518
    16  H    7.459911   6.815936   5.213898   8.550582   7.550883
    17  Cl   6.622938   7.186943   7.393363   7.392462   8.278696
    18  C    6.108717   7.242013   8.396877   6.385729   8.219896
    19  H    6.660339   7.828981   9.042028   6.861371   8.777801
    20  H    6.298976   7.282352   8.167118   6.747259   8.318925
    21  H    6.656604   7.823578   9.033971   6.859918   8.773166
    22  C    7.362093   7.241836   6.385387   8.396718   8.219751
    23  H    7.190414   7.282127   6.746918   8.166919   8.318727
    24  H    7.999300   7.825286   6.858986   9.037385   8.774190
    25  H    8.000113   7.826984   6.861651   9.038358   8.776555
    26  N    2.535676   3.765357   5.309729   2.859001   4.675931
    27  N    4.698040   5.893640   7.228631   4.929119   6.833655
    28  N    6.160290   5.893492   4.928785   7.228493   6.833539
    29  N    4.218783   3.765196   2.858884   5.309437   4.675853
    30  C    5.328109   4.595078   3.040323   6.410727   5.322961
    31  C    3.209320   4.595558   6.411284   3.040930   5.323365
    32  H    5.458141   4.481118   2.554117   6.497700   5.013642
    33  H    3.086000   4.482233   6.498903   2.555390   5.014669
                   11         12         13         14         15
    11  C    0.000000
    12  C    2.262844   0.000000
    13  H    3.284066   1.085790   0.000000
    14  C    4.025945   6.273165   7.309888   0.000000
    15  C    6.273161   8.502858   9.552756   2.262883   0.000000
    16  H    7.309936   9.552793  10.593681   3.284116   1.085788
    17  Cl   3.495616   5.314000   6.035772   3.497435   5.316776
    18  C    2.492101   2.520092   2.802061   5.815406   8.041288
    19  H    3.197901   2.830908   2.855477   6.513802   8.718933
    20  H    2.568701   3.387354   3.841177   5.124788   7.280792
    21  H    3.193920   2.834604   2.862950   6.503178   8.707610
    22  C    5.815431   8.041216   8.972170   2.491951   2.520251
    23  H    5.124725   7.280599   8.154780   2.568459   3.387484
    24  H    6.509620   8.714738   9.633290   3.196314   2.831819
    25  H    6.507471   8.711712   9.629709   3.195301   2.834073
    26  N    1.385542   2.195243   3.264919   4.528802   6.639343
    27  N    1.354190   1.390077   2.170026   5.272139   7.534210
    28  N    5.272236   7.534275   8.545453   1.354187   1.390112
    29  N    4.528586   6.639219   7.718396   1.385518   2.195208
    30  C    5.898902   8.021097   9.100132   2.283958   1.364519
    31  C    2.283976   1.364517   2.230167   5.899144   8.021282
    32  H    6.642431   8.659724   9.745424   3.312509   2.230885
    33  H    3.312679   2.230739   2.782325   6.643102   8.660358
                   16         17         18         19         20
    16  H    0.000000
    17  Cl   6.038920   0.000000
    18  C    8.972327   3.521282   0.000000
    19  H    9.637389   4.123307   1.098919   0.000000
    20  H    8.155066   2.462509   1.097855   1.800949   0.000000
    21  H    9.625886   4.122428   1.098972   1.793831   1.800883
    22  C    2.802375   3.524490   6.857751   7.486360   5.891000
    23  H    3.841480   2.465719   5.890916   6.504332   4.884702
    24  H    2.857802   4.124431   7.483520   7.993390   6.501586
    25  H    2.861343   4.127658   7.478728   8.186462   6.498178
    26  N    7.718538   4.802990   3.583931   4.161332   3.888448
    27  N    8.545446   3.932486   1.459819   2.101055   2.079757
    28  N    2.170093   3.935311   6.808484   7.482717   5.985543
    29  N    3.264876   4.804423   6.671429   7.365562   6.137865
    30  C    2.230164   5.753683   7.971295   8.658373   7.363419
    31  C    9.100333   5.751630   3.626702   4.024536   4.281155
    32  H    2.782590   6.805220   8.842204   9.523582   8.303191
    33  H    9.746059   6.803439   4.660016   4.983422   5.359191
                   21         22         23         24         25
    21  H    0.000000
    22  C    7.475865   0.000000
    23  H    6.495262   1.097883   0.000000
    24  H    8.181639   1.098944   1.800811   0.000000
    25  H    7.976704   1.098957   1.801097   1.793813   0.000000
    26  N    4.158780   6.671591   6.137922   7.361172   7.359875
    27  N    2.101208   6.808371   5.985329   7.478748   7.475484
    28  N    7.471694   1.459813   2.079775   2.101023   2.101240
    29  N    7.355091   3.583814   3.888225   4.159874   4.160126
    30  C    8.647372   3.626745   4.281110   4.024258   4.025960
    31  C    4.025456   7.971441   7.363435   8.654027   8.652078
    32  H    9.512621   4.660162   5.359163   4.983443   4.985536
    33  H    4.984999   8.842701   8.303502   9.519413   9.517860
                   26         27         28         29         30
    26  N    0.000000
    27  N    2.162366   0.000000
    28  N    5.869699   6.448708   0.000000
    29  N    4.617395   5.869452   2.162306   0.000000
    30  C    5.986396   7.232301   2.219026   1.381879   0.000000
    31  C    1.381941   2.219043   7.232573   5.986493   7.347833
    32  H    6.537754   7.994011   3.287168   2.173009   1.085245
    33  H    2.173316   3.287162   7.994687   6.538363   7.854303
                   31         32         33
    31  C    0.000000
    32  H    7.853801   0.000000
    33  H    1.085284   8.234855   0.000000
 Symmetry turned off by external request.
 Stoichiometry    C14H13ClN4Pt(3)
 Framework group  C1[X(C14H13ClN4Pt)]
 Deg. of freedom    93
 Full point group                 C1      NOp   1
 Rotational constants (GHZ):           0.3754590           0.2763556           0.1595135
 Leave Link  202 at Sun Feb  8 17:04:55 2026, MaxMem= 16106127360 cpu:               0.1 elap:               0.0
 (Enter /home/software/g16-shuai/g16/l301.exe)
 Standard basis: def2SVP (5D, 7F)
 Ernie: Thresh=  0.10000D-02 Tol=  0.10000D-05 Strict=F.
   367 basis functions,   643 primitive gaussians,   391 cartesian basis functions
    81 alpha electrons       79 beta electrons
       nuclear repulsion energy      1853.6986529426 Hartrees.
 IExCor= 2523 DFT=T Ex+Corr=TPSSh ExCW=0 ScaHFX=  0.100000
 ScaDFX=  0.900000  0.900000  1.000000  1.000000 ScalE2=  1.000000  1.000000
 IRadAn=      5 IRanWt=     -1 IRanGd=            0 ICorTp=0 IEmpDi=141
 NAtoms=   33 NActive=   33 NUniq=   33 SFac= 1.00D+00 NAtFMM=   60 NAOKFM=F Big=F
 Integral buffers will be    131072 words long.
 Raffenetti 2 integral format.
 Two-electron integral symmetry is turned off.
 R6DIni: Non-standard D2/D3 S6 parameter, value=     1.000000
 R6DIni: Non-standard D2/D3 S8 parameter, value=     2.238200
 R6DIni: Non-standard D3BJ A1 parameter, value=     0.452900
 R6DIni: Non-standard D3BJ A2 parameter, value=     4.655000
 R6Disp:  Grimme-D3(BJ) Dispersion energy=       -0.0619815742 Hartrees.
 Nuclear repulsion after empirical dispersion term =     1853.6366713683 Hartrees.
 Force inversion solution in PCM.
 ------------------------------------------------------------------------------
 Polarizable Continuum Model (PCM)
 =================================
 Model                : PCM.
 Atomic radii         : UFF (Universal Force Field).
 Polarization charges : Total charges.
 Charge compensation  : None.
 Solution method      : Matrix inversion.
 Cavity type          : Scaled VdW (van der Waals Surface) (Alpha=1.100).
 Cavity algorithm     : GePol (No added spheres)
                        Default sphere list used, NSphG=   33.
                        Lebedev-Laikov grids with approx.  5.0 points / Ang**2.
                        Smoothing algorithm: York/Karplus (Gamma=1.0000).
                        Polarization charges: spherical gaussians, with
                                              point-specific exponents (IZeta= 3).
                        Self-potential: point-specific (ISelfS= 7).
                        Self-field    : sphere-specific E.n sum rule (ISelfD= 2).
 1st derivatives      : Analytical E(r).r(x)/FMM algorithm (CHGder, D1EAlg=3).
                        Cavity 1st derivative terms included.
 2nd derivatives      : Analytical E(r).r(xy)/FMM algorithm (CHGder, D2EAlg=3).
                        Cavity 2nd derivative terms included.
 Solvent              : Dichloromethane, Eps=   8.930000 Eps(inf)=   2.028346
 ------------------------------------------------------------------------------
 GePol: Number of generator spheres                  =      33
 GePol: Total number of spheres                      =      33
 GePol: Number of exposed spheres                    =      33 (100.00%)
 GePol: Number of points                             =    2564
 GePol: Average weight of points                     =       0.13
 GePol: Minimum weight of points                     =   0.16D-08
 GePol: Maximum weight of points                     =    0.21838
 GePol: Number of points with low weight             =     150
 GePol: Fraction of low-weight points (<1% of avg)   =       5.85%
 GePol: Cavity surface area                          =    342.517 Ang**2
 GePol: Cavity volume                                =    376.613 Ang**3
 Leave Link  301 at Sun Feb  8 17:04:55 2026, MaxMem= 16106127360 cpu:               2.5 elap:               0.1
 (Enter /home/software/g16-shuai/g16/l302.exe)
 NPDir=0 NMtPBC=     1 NCelOv=     1 NCel=       1 NClECP=     1 NCelD=      1
         NCelK=      1 NCelE2=     1 NClLst=     1 CellRange=     0.0.
 One-electron integrals computed using PRISM.
   1 Symmetry operations used in ECPInt.
 ECPInt:  NShTT=   14028 NPrTT=   51030 LenC2=   12720 LenP2D=   32483.
 LDataN:  DoStor=T MaxTD1= 8 Len=  415
 NBasis=   367 RedAO= T EigKep=  2.15D-04  NBF=   367
 NBsUse=   367 1.00D-06 EigRej= -1.00D+00 NBFU=   367
 Precomputing XC quadrature grid using
 IXCGrd= 4 IRadAn=           5 IRanWt=          -1 IRanGd=           0 AccXCQ= 0.00D+00.
 Defaulting to unpruned grid for atomic number  78.
 Generated NRdTot=       0 NPtTot=           0 NUsed=           0 NTot=          32
 NSgBfM=   389   389   389   389   389 MxSgAt=    33 MxSgA2=    33.
 Leave Link  302 at Sun Feb  8 17:04:55 2026, MaxMem= 16106127360 cpu:              20.4 elap:               0.4
 (Enter /home/software/g16-shuai/g16/l303.exe)
 DipDrv:  MaxL=1.
 Leave Link  303 at Sun Feb  8 17:04:55 2026, MaxMem= 16106127360 cpu:               1.9 elap:               0.1
 (Enter /home/software/g16-shuai/g16/l401.exe)
 ExpMin= 4.90D-02 ExpMax= 1.04D+04 ExpMxC= 1.57D+03 IAcc=3 IRadAn=         5 AccDes= 0.00D+00
 Harris functional with IExCor= 1009 and IRadAn=       5 diagonalized for initial guess.
 HarFok:  IExCor= 1009 AccDes= 0.00D+00 IRadAn=         5 IDoV= 1 UseB2=F ITyADJ=14
 ICtDFT=  3500011 ScaDFX=  1.000000  1.000000  1.000000  1.000000
 Defaulting to unpruned grid for atomic number  78.
 FoFCou: FMM=F IPFlag=           0 FMFlag=      100000 FMFlg1=           0
         NFxFlg=           0 DoJE=T BraDBF=F KetDBF=T FulRan=T
         wScrn=  0.000000 ICntrl=       500 IOpCl=  0 I1Cent=   200000004 NGrid=           0
         NMat0=    1 NMatS0=      1 NMatT0=    0 NMatD0=    1 NMtDS0=    0 NMtDT0=    0
 Symmetry not used in FoFCou.
 Harris En= -1338.19857964331    
 JPrj=0 DoOrth=F DoCkMO=F.
 Initial guess <Sx>= 0.0000 <Sy>= 0.0000 <Sz>= 1.0000 <S**2>= 2.0000 S= 1.0000
 Leave Link  401 at Sun Feb  8 17:04:56 2026, MaxMem= 16106127360 cpu:              38.2 elap:               0.7
 (Enter /home/software/g16-shuai/g16/l502.exe)
 Two-electron integral symmetry not used.
 UHF open shell SCF:
 Using DIIS extrapolation, IDIIS=  1040.
 NGot= 16106127360 LenX= 16105795799 LenY= 16105642477
 Requested convergence on RMS density matrix=1.00D-08 within 128 cycles.
 Requested convergence on MAX density matrix=1.00D-06.
 Requested convergence on             energy=1.00D-06.
 No special actions if energy rises.
 Fock matrices will be formed incrementally for  20 cycles.

 Cycle   1  Pass 1  IDiag  1:
 FoFJK:  IHMeth= 1 ICntrl=       0 DoSepK=F KAlg= 0 I1Cent=           0 FoldK=F
 IRaf= 850000000 NMat=       1 IRICut=       1 DoRegI=T DoRafI=F ISym2E= 0 IDoP0=0 IntGTp=1.
 FoFCou: FMM=F IPFlag=           0 FMFlag=      100000 FMFlg1=           0
         NFxFlg=           0 DoJE=F BraDBF=F KetDBF=F FulRan=T
         wScrn=  0.000000 ICntrl=         0 IOpCl=  1 I1Cent=           0 NGrid=           0
         NMat0=    1 NMatS0=      1 NMatT0=    0 NMatD0=    1 NMtDS0=    0 NMtDT0=    0
 Symmetry not used in FoFCou.
 Defaulting to unpruned grid for atomic number  78.
 Defaulting to unpruned grid for atomic number  78.
 Defaulting to unpruned grid for atomic number  78.
 Defaulting to unpruned grid for atomic number  78.
 Defaulting to unpruned grid for atomic number  78.
 Defaulting to unpruned grid for atomic number  78.
 Defaulting to unpruned grid for atomic number  78.
 Defaulting to unpruned grid for atomic number  78.
 Defaulting to unpruned grid for atomic number  78.
 Defaulting to unpruned grid for atomic number  78.
 Defaulting to unpruned grid for atomic number  78.
 Defaulting to unpruned grid for atomic number  78.
 Defaulting to unpruned grid for atomic number  78.
 Defaulting to unpruned grid for atomic number  78.
 Defaulting to unpruned grid for atomic number  78.
 Defaulting to unpruned grid for atomic number  78.
 Defaulting to unpruned grid for atomic number  78.
 Defaulting to unpruned grid for atomic number  78.
 Defaulting to unpruned grid for atomic number  78.
 Defaulting to unpruned grid for atomic number  78.
 Defaulting to unpruned grid for atomic number  78.
 Defaulting to unpruned grid for atomic number  78.
 Defaulting to unpruned grid for atomic number  78.
 Defaulting to unpruned grid for atomic number  78.
 Defaulting to unpruned grid for atomic number  78.
 Defaulting to unpruned grid for atomic number  78.
 Defaulting to unpruned grid for atomic number  78.
 Defaulting to unpruned grid for atomic number  78.
 Defaulting to unpruned grid for atomic number  78.
 Defaulting to unpruned grid for atomic number  78.
 Defaulting to unpruned grid for atomic number  78.
 Defaulting to unpruned grid for atomic number  78.
 Defaulting to unpruned grid for atomic number  78.
 Defaulting to unpruned grid for atomic number  78.
 Defaulting to unpruned grid for atomic number  78.
 Defaulting to unpruned grid for atomic number  78.
 Defaulting to unpruned grid for atomic number  78.
 Defaulting to unpruned grid for atomic number  78.
 Defaulting to unpruned grid for atomic number  78.
 Defaulting to unpruned grid for atomic number  78.
 Defaulting to unpruned grid for atomic number  78.
 Defaulting to unpruned grid for atomic number  78.
 Defaulting to unpruned grid for atomic number  78.
 Defaulting to unpruned grid for atomic number  78.
 Defaulting to unpruned grid for atomic number  78.
 Defaulting to unpruned grid for atomic number  78.
 Defaulting to unpruned grid for atomic number  78.
 Defaulting to unpruned grid for atomic number  78.
 Defaulting to unpruned grid for atomic number  78.
 Defaulting to unpruned grid for atomic number  78.
 Defaulting to unpruned grid for atomic number  78.
 Defaulting to unpruned grid for atomic number  78.
 Defaulting to unpruned grid for atomic number  78.
 Defaulting to unpruned grid for atomic number  78.
 Defaulting to unpruned grid for atomic number  78.
 Defaulting to unpruned grid for atomic number  78.
 Inv3:  Mode=1 IEnd=    19722288.
 Iteration    1 A*A^-1 deviation from unit magnitude is 4.11D-15 for   2555.
 Iteration    1 A*A^-1 deviation from orthogonality  is 2.00D-15 for   2209   1386.
 Iteration    1 A^-1*A deviation from unit magnitude is 4.11D-15 for   2555.
 Iteration    1 A^-1*A deviation from orthogonality  is 2.02D-15 for   2563   2479.
 E= -1337.68257090999    
 DIIS: error= 8.72D-02 at cycle   1 NSaved=   1.
 NSaved= 1 IEnMin= 1 EnMin= -1337.68257090999     IErMin= 1 ErrMin= 8.72D-02
 ErrMax= 8.72D-02  0.00D+00 EMaxC= 1.00D-01 BMatC= 6.65D+00 BMatP= 6.65D+00
 IDIUse=3 WtCom= 1.28D-01 WtEn= 8.72D-01
 Coeff-Com:  0.100D+01
 Coeff-En:   0.100D+01
 Coeff:      0.100D+01
 Gap=    -0.275 Goal=   None    Shift=    0.000
 Gap=     0.025 Goal=   None    Shift=    0.000
 GapD=   -0.275 DampG=0.250 DampE=0.250 DampFc=0.1250 IDamp=-1.
 Damping current iteration by 1.25D-01
 RMSDP=2.42D-02 MaxDP=3.19D+00              OVMax= 7.72D-01

 Cycle   2  Pass 1  IDiag  1:
 RMSU=  3.02D-03    CP:  1.01D+00
 E= -1338.16394118806     Delta-E=       -0.481370278065 Rises=F Damp=T
 DIIS: error= 4.98D-02 at cycle   2 NSaved=   2.
 NSaved= 2 IEnMin= 2 EnMin= -1338.16394118806     IErMin= 2 ErrMin= 4.98D-02
 ErrMax= 4.98D-02  0.00D+00 EMaxC= 1.00D-01 BMatC= 2.50D+00 BMatP= 6.65D+00
 IDIUse=3 WtCom= 5.02D-01 WtEn= 4.98D-01
 Coeff-Com: -0.136D+01 0.236D+01
 Coeff-En:   0.000D+00 0.100D+01
 Coeff:     -0.684D+00 0.168D+01
 Gap=     0.244 Goal=   None    Shift=    0.000
 Gap=    -0.308 Goal=   None    Shift=    0.000
 RMSDP=6.39D-03 MaxDP=7.70D-01 DE=-4.81D-01 OVMax= 8.41D-01

 Cycle   3  Pass 1  IDiag  1:
 RMSU=  6.31D-03    CP:  9.65D-01  1.10D+00
 E= -1338.19167207667     Delta-E=       -0.027730888606 Rises=F Damp=F
 DIIS: error= 5.84D-02 at cycle   3 NSaved=   3.
 NSaved= 3 IEnMin= 3 EnMin= -1338.19167207667     IErMin= 2 ErrMin= 4.98D-02
 ErrMax= 5.84D-02  0.00D+00 EMaxC= 1.00D-01 BMatC= 3.98D+00 BMatP= 2.50D+00
 IDIUse=2 WtCom= 0.00D+00 WtEn= 1.00D+00
 EnCoef did   100 forward-backward iterations
 Coeff-En:   0.419D+00 0.175D-01 0.563D+00
 Coeff:      0.419D+00 0.175D-01 0.563D+00
 Gap=     0.017 Goal=   None    Shift=    0.000
 Gap=    -0.003 Goal=   None    Shift=    0.000
 RMSDP=5.07D-03 MaxDP=4.37D-01 DE=-2.77D-02 OVMax= 7.49D-01

 Cycle   4  Pass 1  IDiag  1:
 RMSU=  3.61D-03    CP:  9.62D-01  4.03D-01  5.45D-01
 E= -1338.78584112108     Delta-E=       -0.594169044412 Rises=F Damp=F
 DIIS: error= 3.32D-02 at cycle   4 NSaved=   4.
 NSaved= 4 IEnMin= 4 EnMin= -1338.78584112108     IErMin= 4 ErrMin= 3.32D-02
 ErrMax= 3.32D-02  0.00D+00 EMaxC= 1.00D-01 BMatC= 1.62D+00 BMatP= 2.50D+00
 IDIUse=3 WtCom= 6.68D-01 WtEn= 3.32D-01
 EnCoef did   100 forward-backward iterations
 Coeff-Com: -0.291D+00 0.820D+00 0.292D+00 0.178D+00
 Coeff-En:   0.253D+00 0.482D-02 0.317D+00 0.425D+00
 Coeff:     -0.110D+00 0.550D+00 0.300D+00 0.260D+00
 Gap=     0.040 Goal=   None    Shift=    0.000
 Gap=    -0.012 Goal=   None    Shift=    0.000
 RMSDP=3.31D-03 MaxDP=1.78D-01 DE=-5.94D-01 OVMax= 5.45D-01

 Cycle   5  Pass 1  IDiag  1:
 RMSU=  2.25D-03    CP:  9.60D-01  3.04D-01  6.34D-01  3.51D-01
 E= -1339.22809013803     Delta-E=       -0.442249016956 Rises=F Damp=F
 DIIS: error= 1.38D-02 at cycle   5 NSaved=   5.
 NSaved= 5 IEnMin= 5 EnMin= -1339.22809013803     IErMin= 5 ErrMin= 1.38D-02
 ErrMax= 1.38D-02  0.00D+00 EMaxC= 1.00D-01 BMatC= 2.45D-01 BMatP= 1.62D+00
 IDIUse=3 WtCom= 8.62D-01 WtEn= 1.38D-01
 Coeff-Com: -0.186D+00 0.324D+00 0.391D-01 0.202D+00 0.622D+00
 Coeff-En:   0.000D+00 0.000D+00 0.000D+00 0.180D+00 0.820D+00
 Coeff:     -0.161D+00 0.279D+00 0.337D-01 0.199D+00 0.649D+00
 Gap=     0.024 Goal=   None    Shift=    0.000
 Gap=     0.043 Goal=   None    Shift=    0.000
 RMSDP=1.21D-03 MaxDP=7.23D-02 DE=-4.42D-01 OVMax= 2.56D-01

 Cycle   6  Pass 1  IDiag  1:
 RMSU=  6.39D-04    CP:  9.60D-01  3.45D-01  6.49D-01  5.42D-01  6.74D-01
 E= -1339.30222863913     Delta-E=       -0.074138501098 Rises=F Damp=F
 DIIS: error= 4.21D-03 at cycle   6 NSaved=   6.
 NSaved= 6 IEnMin= 6 EnMin= -1339.30222863913     IErMin= 6 ErrMin= 4.21D-03
 ErrMax= 4.21D-03  0.00D+00 EMaxC= 1.00D-01 BMatC= 2.20D-02 BMatP= 2.45D-01
 IDIUse=3 WtCom= 9.58D-01 WtEn= 4.21D-02
 Coeff-Com: -0.881D-01 0.142D+00-0.124D-01 0.742D-01 0.309D+00 0.575D+00
 Coeff-En:   0.000D+00 0.000D+00 0.000D+00 0.000D+00 0.000D+00 0.100D+01
 Coeff:     -0.844D-01 0.136D+00-0.119D-01 0.711D-01 0.296D+00 0.593D+00
 Gap=     0.035 Goal=   None    Shift=    0.000
 Gap=     0.027 Goal=   None    Shift=    0.000
 RMSDP=4.01D-04 MaxDP=4.51D-02 DE=-7.41D-02 OVMax= 8.57D-02

 Cycle   7  Pass 1  IDiag  1:
 RMSU=  3.10D-04    CP:  9.60D-01  3.32D-01  6.36D-01  5.23D-01  7.59D-01
                    CP:  8.07D-01
 E= -1339.30642577013     Delta-E=       -0.004197130994 Rises=F Damp=F
 DIIS: error= 2.08D-03 at cycle   7 NSaved=   7.
 NSaved= 7 IEnMin= 7 EnMin= -1339.30642577013     IErMin= 7 ErrMin= 2.08D-03
 ErrMax= 2.08D-03  0.00D+00 EMaxC= 1.00D-01 BMatC= 7.10D-03 BMatP= 2.20D-02
 IDIUse=3 WtCom= 9.79D-01 WtEn= 2.08D-02
 Coeff-Com: -0.151D-01 0.252D-01-0.126D-01 0.441D-02 0.186D-01 0.378D+00
 Coeff-Com:  0.601D+00
 Coeff-En:   0.000D+00 0.000D+00 0.000D+00 0.000D+00 0.000D+00 0.261D+00
 Coeff-En:   0.739D+00
 Coeff:     -0.148D-01 0.247D-01-0.123D-01 0.432D-02 0.182D-01 0.376D+00
 Coeff:      0.604D+00
 Gap=     0.038 Goal=   None    Shift=    0.000
 Gap=     0.035 Goal=   None    Shift=    0.000
 RMSDP=2.33D-04 MaxDP=1.17D-02 DE=-4.20D-03 OVMax= 5.13D-02

 Cycle   8  Pass 1  IDiag  1:
 RMSU=  1.44D-04    CP:  9.59D-01  3.30D-01  6.37D-01  5.42D-01  7.17D-01
                    CP:  9.73D-01  7.02D-01
 E= -1339.30826690366     Delta-E=       -0.001841133535 Rises=F Damp=F
 DIIS: error= 8.40D-04 at cycle   8 NSaved=   8.
 NSaved= 8 IEnMin= 8 EnMin= -1339.30826690366     IErMin= 8 ErrMin= 8.40D-04
 ErrMax= 8.40D-04  0.00D+00 EMaxC= 1.00D-01 BMatC= 1.66D-03 BMatP= 7.10D-03
 IDIUse=3 WtCom= 9.92D-01 WtEn= 8.40D-03
 Coeff-Com:  0.473D-02-0.535D-02-0.538D-02-0.559D-02-0.317D-01 0.173D+00
 Coeff-Com:  0.421D+00 0.449D+00
 Coeff-En:   0.000D+00 0.000D+00 0.000D+00 0.000D+00 0.000D+00 0.000D+00
 Coeff-En:   0.104D+00 0.896D+00
 Coeff:      0.469D-02-0.531D-02-0.534D-02-0.554D-02-0.314D-01 0.172D+00
 Coeff:      0.419D+00 0.452D+00
 Gap=     0.039 Goal=   None    Shift=    0.000
 Gap=     0.035 Goal=   None    Shift=    0.000
 RMSDP=1.01D-04 MaxDP=5.82D-03 DE=-1.84D-03 OVMax= 1.51D-02

 Cycle   9  Pass 1  IDiag  1:
 RMSU=  6.65D-05    CP:  9.60D-01  3.33D-01  6.35D-01  5.43D-01  7.19D-01
                    CP:  9.79D-01  8.86D-01  6.85D-01
 E= -1339.30875467428     Delta-E=       -0.000487770621 Rises=F Damp=F
 DIIS: error= 4.10D-04 at cycle   9 NSaved=   9.
 NSaved= 9 IEnMin= 9 EnMin= -1339.30875467428     IErMin= 9 ErrMin= 4.10D-04
 ErrMax= 4.10D-04  0.00D+00 EMaxC= 1.00D-01 BMatC= 1.59D-04 BMatP= 1.66D-03
 IDIUse=3 WtCom= 9.96D-01 WtEn= 4.10D-03
 Coeff-Com: -0.172D-02 0.318D-02 0.658D-03-0.448D-02-0.105D-01 0.138D-01
 Coeff-Com:  0.780D-01 0.200D+00 0.721D+00
 Coeff-En:   0.000D+00 0.000D+00 0.000D+00 0.000D+00 0.000D+00 0.000D+00
 Coeff-En:   0.000D+00 0.000D+00 0.100D+01
 Coeff:     -0.171D-02 0.317D-02 0.655D-03-0.447D-02-0.104D-01 0.137D-01
 Coeff:      0.777D-01 0.199D+00 0.722D+00
 Gap=     0.039 Goal=   None    Shift=    0.000
 Gap=     0.036 Goal=   None    Shift=    0.000
 RMSDP=4.13D-05 MaxDP=4.41D-03 DE=-4.88D-04 OVMax= 9.13D-03

 Cycle  10  Pass 1  IDiag  1:
 RMSU=  2.99D-05    CP:  9.60D-01  3.34D-01  6.36D-01  5.41D-01  7.17D-01
                    CP:  9.92D-01  9.17D-01  8.45D-01  1.08D+00
 E= -1339.30882757698     Delta-E=       -0.000072902702 Rises=F Damp=F
 DIIS: error= 2.49D-04 at cycle  10 NSaved=  10.
 NSaved=10 IEnMin=10 EnMin= -1339.30882757698     IErMin=10 ErrMin= 2.49D-04
 ErrMax= 2.49D-04  0.00D+00 EMaxC= 1.00D-01 BMatC= 7.05D-05 BMatP= 1.59D-04
 IDIUse=3 WtCom= 9.98D-01 WtEn= 2.49D-03
 Coeff-Com: -0.162D-03-0.143D-04 0.210D-02-0.865D-03 0.206D-02-0.460D-01
 Coeff-Com: -0.808D-01-0.465D-02 0.485D+00 0.643D+00
 Coeff-En:   0.000D+00 0.000D+00 0.000D+00 0.000D+00 0.000D+00 0.000D+00
 Coeff-En:   0.000D+00 0.000D+00 0.000D+00 0.100D+01
 Coeff:     -0.161D-03-0.143D-04 0.210D-02-0.863D-03 0.205D-02-0.458D-01
 Coeff:     -0.806D-01-0.463D-02 0.484D+00 0.644D+00
 Gap=     0.040 Goal=   None    Shift=    0.000
 Gap=     0.036 Goal=   None    Shift=    0.000
 RMSDP=3.24D-05 MaxDP=3.81D-03 DE=-7.29D-05 OVMax= 7.93D-03

 Cycle  11  Pass 1  IDiag  1:
 RMSU=  1.87D-05    CP:  9.60D-01  3.33D-01  6.36D-01  5.41D-01  7.17D-01
                    CP:  9.99D-01  9.58D-01  9.32D-01  1.35D+00  1.06D+00
 E= -1339.30886562835     Delta-E=       -0.000038051371 Rises=F Damp=F
 DIIS: error= 1.31D-04 at cycle  11 NSaved=  11.
 NSaved=11 IEnMin=11 EnMin= -1339.30886562835     IErMin=11 ErrMin= 1.31D-04
 ErrMax= 1.31D-04  0.00D+00 EMaxC= 1.00D-01 BMatC= 2.03D-05 BMatP= 7.05D-05
 IDIUse=3 WtCom= 9.99D-01 WtEn= 1.31D-03
 Coeff-Com:  0.112D-02-0.204D-02 0.119D-02 0.927D-03 0.287D-02-0.281D-01
 Coeff-Com: -0.676D-01-0.622D-01 0.335D-01 0.402D+00 0.718D+00
 Coeff-En:   0.000D+00 0.000D+00 0.000D+00 0.000D+00 0.000D+00 0.000D+00
 Coeff-En:   0.000D+00 0.000D+00 0.000D+00 0.000D+00 0.100D+01
 Coeff:      0.112D-02-0.204D-02 0.119D-02 0.926D-03 0.287D-02-0.280D-01
 Coeff:     -0.675D-01-0.621D-01 0.335D-01 0.402D+00 0.718D+00
 Gap=     0.040 Goal=   None    Shift=    0.000
 Gap=     0.037 Goal=   None    Shift=    0.000
 RMSDP=2.09D-05 MaxDP=2.93D-03 DE=-3.81D-05 OVMax= 6.01D-03

 Cycle  12  Pass 1  IDiag  1:
 RMSU=  9.14D-06    CP:  9.60D-01  3.33D-01  6.35D-01  5.41D-01  7.15D-01
                    CP:  1.00D+00  9.77D-01  9.90D-01  1.52D+00  1.40D+00
                    CP:  1.12D+00
 E= -1339.30887904642     Delta-E=       -0.000013418062 Rises=F Damp=F
 DIIS: error= 5.32D-05 at cycle  12 NSaved=  12.
 NSaved=12 IEnMin=12 EnMin= -1339.30887904642     IErMin=12 ErrMin= 5.32D-05
 ErrMax= 5.32D-05  0.00D+00 EMaxC= 1.00D-01 BMatC= 4.76D-06 BMatP= 2.03D-05
 IDIUse=1 WtCom= 1.00D+00 WtEn= 0.00D+00
 Coeff-Com:  0.244D-03-0.404D-03 0.160D-04 0.724D-03 0.679D-03 0.522D-02
 Coeff-Com: -0.246D-02-0.279D-01-0.165D+00-0.895D-02 0.376D+00 0.822D+00
 Coeff:      0.244D-03-0.404D-03 0.160D-04 0.724D-03 0.679D-03 0.522D-02
 Coeff:     -0.246D-02-0.279D-01-0.165D+00-0.895D-02 0.376D+00 0.822D+00
 Gap=     0.040 Goal=   None    Shift=    0.000
 Gap=     0.037 Goal=   None    Shift=    0.000
 RMSDP=1.33D-05 MaxDP=2.03D-03 DE=-1.34D-05 OVMax= 4.13D-03

 Cycle  13  Pass 1  IDiag  1:
 RMSU=  4.72D-06    CP:  9.60D-01  3.34D-01  6.36D-01  5.41D-01  7.14D-01
                    CP:  1.01D+00  9.87D-01  1.02D+00  1.61D+00  1.63D+00
                    CP:  1.42D+00  1.15D+00
 E= -1339.30888266234     Delta-E=       -0.000003615921 Rises=F Damp=F
 DIIS: error= 2.27D-05 at cycle  13 NSaved=  13.
 NSaved=13 IEnMin=13 EnMin= -1339.30888266234     IErMin=13 ErrMin= 2.27D-05
 ErrMax= 2.27D-05  0.00D+00 EMaxC= 1.00D-01 BMatC= 1.35D-06 BMatP= 4.76D-06
 IDIUse=1 WtCom= 1.00D+00 WtEn= 0.00D+00
 Coeff-Com:  0.179D-03-0.182D-03-0.339D-03 0.104D-03-0.344D-03 0.803D-02
 Coeff-Com:  0.127D-01-0.157D-02-0.881D-01-0.886D-01 0.492D-01 0.447D+00
 Coeff-Com:  0.662D+00
 Coeff:      0.179D-03-0.182D-03-0.339D-03 0.104D-03-0.344D-03 0.803D-02
 Coeff:      0.127D-01-0.157D-02-0.881D-01-0.886D-01 0.492D-01 0.447D+00
 Coeff:      0.662D+00
 Gap=     0.040 Goal=   None    Shift=    0.000
 Gap=     0.037 Goal=   None    Shift=    0.000
 RMSDP=5.27D-06 MaxDP=7.76D-04 DE=-3.62D-06 OVMax= 1.57D-03

 Cycle  14  Pass 1  IDiag  1:
 RMSU=  2.43D-06    CP:  9.60D-01  3.34D-01  6.36D-01  5.41D-01  7.14D-01
                    CP:  1.01D+00  9.90D-01  1.03D+00  1.63D+00  1.70D+00
                    CP:  1.57D+00  1.33D+00  1.00D+00
 E= -1339.30888328586     Delta-E=       -0.000000623519 Rises=F Damp=F
 DIIS: error= 1.77D-05 at cycle  14 NSaved=  14.
 NSaved=14 IEnMin=14 EnMin= -1339.30888328586     IErMin=14 ErrMin= 1.77D-05
 ErrMax= 1.77D-05  0.00D+00 EMaxC= 1.00D-01 BMatC= 4.03D-07 BMatP= 1.35D-06
 IDIUse=1 WtCom= 1.00D+00 WtEn= 0.00D+00
 Coeff-Com: -0.112D-04 0.880D-04-0.231D-03-0.620D-04 0.168D-03 0.117D-02
 Coeff-Com:  0.386D-02 0.327D-02-0.388D-03-0.370D-01-0.510D-01 0.525D-01
 Coeff-Com:  0.299D+00 0.728D+00
 Coeff:     -0.112D-04 0.880D-04-0.231D-03-0.620D-04 0.168D-03 0.117D-02
 Coeff:      0.386D-02 0.327D-02-0.388D-03-0.370D-01-0.510D-01 0.525D-01
 Coeff:      0.299D+00 0.728D+00
 Gap=     0.040 Goal=   None    Shift=    0.000
 Gap=     0.037 Goal=   None    Shift=    0.000
 RMSDP=2.43D-06 MaxDP=3.60D-04 DE=-6.24D-07 OVMax= 7.44D-04

 Cycle  15  Pass 1  IDiag  1:
 RMSU=  1.11D-06    CP:  9.60D-01  3.34D-01  6.35D-01  5.41D-01  7.14D-01
                    CP:  1.01D+00  9.91D-01  1.03D+00  1.64D+00  1.73D+00
                    CP:  1.62D+00  1.44D+00  1.14D+00  9.11D-01
 E= -1339.30888345249     Delta-E=       -0.000000166636 Rises=F Damp=F
 DIIS: error= 5.52D-06 at cycle  15 NSaved=  15.
 NSaved=15 IEnMin=15 EnMin= -1339.30888345249     IErMin=15 ErrMin= 5.52D-06
 ErrMax= 5.52D-06  0.00D+00 EMaxC= 1.00D-01 BMatC= 4.82D-08 BMatP= 4.03D-07
 IDIUse=1 WtCom= 1.00D+00 WtEn= 0.00D+00
 Coeff-Com:  0.167D-04-0.179D-04-0.235D-04-0.100D-05 0.204D-03-0.193D-02
 Coeff-Com: -0.237D-02 0.156D-02 0.209D-01 0.738D-02-0.276D-01-0.759D-01
 Coeff-Com: -0.749D-01 0.200D+00 0.953D+00
 Coeff:      0.167D-04-0.179D-04-0.235D-04-0.100D-05 0.204D-03-0.193D-02
 Coeff:     -0.237D-02 0.156D-02 0.209D-01 0.738D-02-0.276D-01-0.759D-01
 Coeff:     -0.749D-01 0.200D+00 0.953D+00
 Gap=     0.040 Goal=   None    Shift=    0.000
 Gap=     0.037 Goal=   None    Shift=    0.000
 RMSDP=1.52D-06 MaxDP=2.69D-04 DE=-1.67D-07 OVMax= 5.52D-04

 Cycle  16  Pass 1  IDiag  1:
 RMSU=  4.53D-07    CP:  9.60D-01  3.33D-01  6.35D-01  5.41D-01  7.14D-01
                    CP:  1.01D+00  9.92D-01  1.03D+00  1.65D+00  1.75D+00
                    CP:  1.65D+00  1.50D+00  1.24D+00  1.08D+00  1.33D+00
 E= -1339.30888348473     Delta-E=       -0.000000032235 Rises=F Damp=F
 DIIS: error= 1.77D-06 at cycle  16 NSaved=  16.
 NSaved=16 IEnMin=16 EnMin= -1339.30888348473     IErMin=16 ErrMin= 1.77D-06
 ErrMax= 1.77D-06  0.00D+00 EMaxC= 1.00D-01 BMatC= 1.06D-08 BMatP= 4.82D-08
 IDIUse=1 WtCom= 1.00D+00 WtEn= 0.00D+00
 Coeff-Com:  0.972D-07-0.238D-05 0.714D-05 0.762D-05 0.848D-04-0.101D-02
 Coeff-Com: -0.137D-02 0.627D-03 0.103D-01 0.625D-02-0.106D-01-0.431D-01
 Coeff-Com: -0.655D-01 0.451D-01 0.533D+00 0.527D+00
 Coeff:      0.972D-07-0.238D-05 0.714D-05 0.762D-05 0.848D-04-0.101D-02
 Coeff:     -0.137D-02 0.627D-03 0.103D-01 0.625D-02-0.106D-01-0.431D-01
 Coeff:     -0.655D-01 0.451D-01 0.533D+00 0.527D+00
 Gap=     0.040 Goal=   None    Shift=    0.000
 Gap=     0.037 Goal=   None    Shift=    0.000
 RMSDP=4.19D-07 MaxDP=7.13D-05 DE=-3.22D-08 OVMax= 1.46D-04

 Cycle  17  Pass 1  IDiag  1:
 RMSU=  2.28D-07    CP:  9.60D-01  3.33D-01  6.35D-01  5.41D-01  7.14D-01
                    CP:  1.01D+00  9.93D-01  1.03D+00  1.65D+00  1.75D+00
                    CP:  1.66D+00  1.51D+00  1.26D+00  1.13D+00  1.41D+00
                    CP:  9.68D-01
 E= -1339.30888349015     Delta-E=       -0.000000005426 Rises=F Damp=F
 DIIS: error= 1.11D-06 at cycle  17 NSaved=  17.
 NSaved=17 IEnMin=17 EnMin= -1339.30888349015     IErMin=17 ErrMin= 1.11D-06
 ErrMax= 1.11D-06  0.00D+00 EMaxC= 1.00D-01 BMatC= 1.74D-09 BMatP= 1.06D-08
 IDIUse=1 WtCom= 1.00D+00 WtEn= 0.00D+00
 Coeff-Com: -0.620D-05 0.783D-05 0.696D-05 0.188D-05 0.355D-05-0.174D-03
 Coeff-Com: -0.220D-03 0.167D-03 0.211D-02 0.150D-02-0.244D-02-0.111D-01
 Coeff-Com: -0.170D-01 0.703D-02 0.121D+00 0.227D+00 0.672D+00
 Coeff:     -0.620D-05 0.783D-05 0.696D-05 0.188D-05 0.355D-05-0.174D-03
 Coeff:     -0.220D-03 0.167D-03 0.211D-02 0.150D-02-0.244D-02-0.111D-01
 Coeff:     -0.170D-01 0.703D-02 0.121D+00 0.227D+00 0.672D+00
 Gap=     0.040 Goal=   None    Shift=    0.000
 Gap=     0.037 Goal=   None    Shift=    0.000
 RMSDP=2.76D-07 MaxDP=4.95D-05 DE=-5.43D-09 OVMax= 1.01D-04

 Cycle  18  Pass 1  IDiag  1:
 RMSU=  1.37D-07    CP:  9.60D-01  3.33D-01  6.35D-01  5.41D-01  7.14D-01
                    CP:  1.01D+00  9.93D-01  1.03D+00  1.66D+00  1.76D+00
                    CP:  1.66D+00  1.52D+00  1.27D+00  1.15D+00  1.48D+00
                    CP:  1.19D+00  1.12D+00
 E= -1339.30888349174     Delta-E=       -0.000000001590 Rises=F Damp=F
 DIIS: error= 9.72D-07 at cycle  18 NSaved=  18.
 NSaved=18 IEnMin=18 EnMin= -1339.30888349174     IErMin=18 ErrMin= 9.72D-07
 ErrMax= 9.72D-07  0.00D+00 EMaxC= 1.00D-01 BMatC= 1.30D-09 BMatP= 1.74D-09
 IDIUse=1 WtCom= 1.00D+00 WtEn= 0.00D+00
 Coeff-Com: -0.675D-05 0.967D-05 0.327D-05-0.177D-05-0.350D-04 0.301D-03
 Coeff-Com:  0.413D-03-0.117D-03-0.266D-02-0.143D-02 0.233D-02 0.912D-02
 Coeff-Com:  0.157D-01-0.117D-01-0.141D+00-0.519D-01 0.596D+00 0.585D+00
 Coeff:     -0.675D-05 0.967D-05 0.327D-05-0.177D-05-0.350D-04 0.301D-03
 Coeff:      0.413D-03-0.117D-03-0.266D-02-0.143D-02 0.233D-02 0.912D-02
 Coeff:      0.157D-01-0.117D-01-0.141D+00-0.519D-01 0.596D+00 0.585D+00
 Gap=     0.040 Goal=   None    Shift=    0.000
 Gap=     0.037 Goal=   None    Shift=    0.000
 RMSDP=2.69D-07 MaxDP=4.94D-05 DE=-1.59D-09 OVMax= 1.01D-04

 Cycle  19  Pass 1  IDiag  1:
 RMSU=  7.32D-08    CP:  9.60D-01  3.33D-01  6.35D-01  5.41D-01  7.14D-01
                    CP:  1.01D+00  9.93D-01  1.03D+00  1.66D+00  1.76D+00
                    CP:  1.67D+00  1.53D+00  1.29D+00  1.17D+00  1.55D+00
                    CP:  1.35D+00  1.64D+00  8.29D-01
 E= -1339.30888349303     Delta-E=       -0.000000001288 Rises=F Damp=F
 DIIS: error= 4.93D-07 at cycle  19 NSaved=  19.
 NSaved=19 IEnMin=19 EnMin= -1339.30888349303     IErMin=19 ErrMin= 4.93D-07
 ErrMax= 4.93D-07  0.00D+00 EMaxC= 1.00D-01 BMatC= 2.68D-10 BMatP= 1.30D-09
 IDIUse=1 WtCom= 1.00D+00 WtEn= 0.00D+00
 Coeff-Com: -0.223D-06 0.175D-06-0.160D-05 0.102D-06-0.105D-04 0.203D-03
 Coeff-Com:  0.217D-03-0.156D-03-0.212D-02-0.996D-03 0.243D-02 0.924D-02
 Coeff-Com:  0.153D-01-0.124D-01-0.138D+00-0.147D+00-0.442D-01 0.356D+00
 Coeff-Com:  0.961D+00
 Coeff:     -0.223D-06 0.175D-06-0.160D-05 0.102D-06-0.105D-04 0.203D-03
 Coeff:      0.217D-03-0.156D-03-0.212D-02-0.996D-03 0.243D-02 0.924D-02
 Coeff:      0.153D-01-0.124D-01-0.138D+00-0.147D+00-0.442D-01 0.356D+00
 Coeff:      0.961D+00
 Gap=     0.040 Goal=   None    Shift=    0.000
 Gap=     0.037 Goal=   None    Shift=    0.000
 RMSDP=2.75D-07 MaxDP=5.39D-05 DE=-1.29D-09 OVMax= 1.10D-04

 Cycle  20  Pass 1  IDiag  1:
 RMSU=  3.04D-08    CP:  9.60D-01  3.33D-01  6.35D-01  5.41D-01  7.14D-01
                    CP:  1.01D+00  9.93D-01  1.04D+00  1.66D+00  1.76D+00
                    CP:  1.67D+00  1.54D+00  1.30D+00  1.19D+00  1.63D+00
                    CP:  1.57D+00  2.02D+00  1.25D+00  1.23D+00
 E= -1339.30888349364     Delta-E=       -0.000000000605 Rises=F Damp=F
 DIIS: error= 1.36D-07 at cycle  20 NSaved=  20.
 NSaved=20 IEnMin=20 EnMin= -1339.30888349364     IErMin=20 ErrMin= 1.36D-07
 ErrMax= 1.36D-07  0.00D+00 EMaxC= 1.00D-01 BMatC= 3.90D-11 BMatP= 2.68D-10
 IDIUse=1 WtCom= 1.00D+00 WtEn= 0.00D+00
 Coeff-Com:  0.151D-05-0.232D-05-0.101D-05 0.571D-06 0.207D-05 0.326D-04
 Coeff-Com:  0.140D-04-0.598D-04-0.416D-03-0.155D-03 0.707D-03 0.235D-02
 Coeff-Com:  0.358D-02-0.448D-02-0.380D-01-0.514D-01-0.992D-01 0.754D-01
 Coeff-Com:  0.406D+00 0.706D+00
 Coeff:      0.151D-05-0.232D-05-0.101D-05 0.571D-06 0.207D-05 0.326D-04
 Coeff:      0.140D-04-0.598D-04-0.416D-03-0.155D-03 0.707D-03 0.235D-02
 Coeff:      0.358D-02-0.448D-02-0.380D-01-0.514D-01-0.992D-01 0.754D-01
 Coeff:      0.406D+00 0.706D+00
 Gap=     0.040 Goal=   None    Shift=    0.000
 Gap=     0.037 Goal=   None    Shift=    0.000
 RMSDP=6.48D-08 MaxDP=1.24D-05 DE=-6.05D-10 OVMax= 2.53D-05

 Cycle  21  Pass 1  IDiag  1:
 Restarting incremental Fock formation.
 E= -1339.30888349365     Delta-E=       -0.000000000017 Rises=F Damp=F
 DIIS: error= 7.16D-08 at cycle  21 NSaved=  20.
 NSaved=20 IEnMin=20 EnMin= -1339.30888349365     IErMin=20 ErrMin= 7.16D-08
 ErrMax= 7.16D-08  0.00D+00 EMaxC= 1.00D-01 BMatC= 1.14D-11 BMatP= 3.90D-11
 IDIUse=1 WtCom= 1.00D+00 WtEn= 0.00D+00
 Coeff-Com:  0.841D-07-0.474D-06-0.223D-06 0.346D-05-0.210D-04-0.261D-04
 Coeff-Com:  0.704D-05 0.207D-03 0.374D-04-0.192D-03-0.591D-03-0.130D-02
 Coeff-Com:  0.998D-03 0.120D-01 0.806D-02-0.454D-01-0.469D-01-0.256D-01
 Coeff-Com:  0.381D+00 0.718D+00
 Coeff:      0.841D-07-0.474D-06-0.223D-06 0.346D-05-0.210D-04-0.261D-04
 Coeff:      0.704D-05 0.207D-03 0.374D-04-0.192D-03-0.591D-03-0.130D-02
 Coeff:      0.998D-03 0.120D-01 0.806D-02-0.454D-01-0.469D-01-0.256D-01
 Coeff:      0.381D+00 0.718D+00
 Gap=     0.040 Goal=   None    Shift=    0.000
 Gap=     0.037 Goal=   None    Shift=    0.000
 RMSDP=2.93D-08 MaxDP=5.47D-06 DE=-1.73D-11 OVMax= 1.11D-05

 Cycle  22  Pass 1  IDiag  1:
 RMSU=  2.93D-08    CP:  1.00D+00
 E= -1339.30888349368     Delta-E=       -0.000000000024 Rises=F Damp=F
 DIIS: error= 2.06D-08 at cycle  22 NSaved=  20.
 NSaved=20 IEnMin=20 EnMin= -1339.30888349368     IErMin=20 ErrMin= 2.06D-08
 ErrMax= 2.06D-08  0.00D+00 EMaxC= 1.00D-01 BMatC= 2.04D-12 BMatP= 1.14D-11
 IDIUse=1 WtCom= 1.00D+00 WtEn= 0.00D+00
 Coeff-Com:  0.143D-07-0.981D-07 0.162D-05-0.178D-04-0.163D-04 0.149D-04
 Coeff-Com:  0.182D-03 0.442D-04-0.213D-03-0.759D-03-0.145D-02 0.147D-02
 Coeff-Com:  0.137D-01 0.153D-01 0.166D-02-0.370D-01-0.110D+00 0.216D-01
 Coeff-Com:  0.343D+00 0.753D+00
 Coeff:      0.143D-07-0.981D-07 0.162D-05-0.178D-04-0.163D-04 0.149D-04
 Coeff:      0.182D-03 0.442D-04-0.213D-03-0.759D-03-0.145D-02 0.147D-02
 Coeff:      0.137D-01 0.153D-01 0.166D-02-0.370D-01-0.110D+00 0.216D-01
 Coeff:      0.343D+00 0.753D+00
 Gap=     0.040 Goal=   None    Shift=    0.000
 Gap=     0.037 Goal=   None    Shift=    0.000
 RMSDP=1.23D-08 MaxDP=2.02D-06 DE=-2.39D-11 OVMax= 4.08D-06

 Cycle  23  Pass 1  IDiag  1:
 RMSU=  5.36D-09    CP:  1.00D+00  1.38D+00
 E= -1339.30888349367     Delta-E=        0.000000000009 Rises=F Damp=F
 DIIS: error= 1.50D-08 at cycle  23 NSaved=  20.
 NSaved=20 IEnMin=19 EnMin= -1339.30888349368     IErMin=20 ErrMin= 1.50D-08
 ErrMax= 1.50D-08  0.00D+00 EMaxC= 1.00D-01 BMatC= 5.23D-13 BMatP= 2.04D-12
 IDIUse=1 WtCom= 1.00D+00 WtEn= 0.00D+00
 Coeff-Com: -0.315D-07 0.642D-06-0.742D-05-0.486D-05 0.853D-05 0.820D-04
 Coeff-Com:  0.128D-04-0.107D-03-0.369D-03-0.671D-03 0.814D-03 0.651D-02
 Coeff-Com:  0.768D-02 0.444D-02-0.151D-01-0.603D-01-0.202D-01 0.124D+00
 Coeff-Com:  0.435D+00 0.518D+00
 Coeff:     -0.315D-07 0.642D-06-0.742D-05-0.486D-05 0.853D-05 0.820D-04
 Coeff:      0.128D-04-0.107D-03-0.369D-03-0.671D-03 0.814D-03 0.651D-02
 Coeff:      0.768D-02 0.444D-02-0.151D-01-0.603D-01-0.202D-01 0.124D+00
 Coeff:      0.435D+00 0.518D+00
 Gap=     0.040 Goal=   None    Shift=    0.000
 Gap=     0.037 Goal=   None    Shift=    0.000
 RMSDP=3.24D-09 MaxDP=2.08D-07 DE= 9.32D-12 OVMax= 7.91D-07

 Error on total polarization charges =  0.01903
 SCF Done:  E(UTPSSh) =  -1339.30888349     A.U. after   23 cycles
            NFock= 23  Conv=0.32D-08     -V/T= 2.0705
 <Sx>= 0.0000 <Sy>= 0.0000 <Sz>= 1.0000 <S**2>= 2.0169 S= 1.0056
 <L.S>=  0.00000000000    
 KE= 1.251133711483D+03 PE=-6.811487549714D+03 EE= 2.367408283369D+03
 Annihilation of the first spin contaminant:
 S**2 before annihilation     2.0169,   after     2.0002
 Leave Link  502 at Sun Feb  8 17:06:23 2026, MaxMem= 16106127360 cpu:            4750.7 elap:              86.4
 (Enter /home/software/g16-shuai/g16/l801.exe)
 DoSCS=F DFT=T ScalE2(SS,OS)=  1.000000  1.000000
 Range of M.O.s used for correlation:     1   367
 NBasis=   367 NAE=    81 NBE=    79 NFC=     0 NFV=     0
 NROrb=    367 NOA=    81 NOB=    79 NVA=   286 NVB=   288

 **** Warning!!: The largest alpha MO coefficient is  0.11020734D+02


 **** Warning!!: The smallest alpha delta epsilon is  0.39994247D-01


 **** Warning!!: The largest beta MO coefficient is  0.12903413D+02


 **** Warning!!: The smallest beta delta epsilon is  0.36780569D-01

 Leave Link  801 at Sun Feb  8 17:06:23 2026, MaxMem= 16106127360 cpu:               1.0 elap:               0.0
 (Enter /home/software/g16-shuai/g16/l1101.exe)
 Using compressed storage, NAtomX=    33.
 Will process     34 centers per pass.
   1 Symmetry operations used in ECPInt.
 ECPInt:  NShTT=   14028 NPrTT=   51030 LenC2=   12720 LenP2D=   32483.
 LDataN:  DoStor=T MaxTD1= 9 Len=  602
 Number of processors reduced to  44 by ecpmxn.
 R6Disp: Adding Grimme-D3(BJ) dispersion energy 1st derivatives to the gradient.
 Leave Link 1101 at Sun Feb  8 17:06:24 2026, MaxMem= 16106127360 cpu:              57.5 elap:               1.2
 (Enter /home/software/g16-shuai/g16/l1102.exe)
 Symmetrizing basis deriv contribution to polar:
 IMax=3 JMax=2 DiffMx= 0.00D+00
 Leave Link 1102 at Sun Feb  8 17:06:24 2026, MaxMem= 16106127360 cpu:               1.9 elap:               0.1
 (Enter /home/software/g16-shuai/g16/l1110.exe)
 Forming Gx(P) for the SCF density, NAtomX=    33.
 Integral derivatives from FoFJK, PRISM(SPDF).
 Do as many integral derivatives as possible in FoFJK.
 G2DrvN: MDV=   16106123825.
 G2DrvN: will do    34 centers at a time, making    1 passes.
 Calling FoFCou, ICntrl=  3107 FMM=F I1Cent=   0 AccDes= 0.00D+00.
 FoFJK:  IHMeth= 1 ICntrl=    3107 DoSepK=F KAlg= 0 I1Cent=           0 FoldK=F
 IRaf=         0 NMat=       1 IRICut=       1 DoRegI=T DoRafI=F ISym2E= 0 IDoP0=0 IntGTp=1.
 FoFCou: FMM=F IPFlag=           0 FMFlag=      100000 FMFlg1=           0
         NFxFlg=           0 DoJE=F BraDBF=F KetDBF=F FulRan=T
         wScrn=  0.000000 ICntrl=      3107 IOpCl=  1 I1Cent=           0 NGrid=           0
         NMat0=    1 NMatS0=      1 NMatT0=    0 NMatD0=    1 NMtDS0=    0 NMtDT0=    0
 Symmetry not used in FoFCou.
 Defaulting to unpruned grid for atomic number  78.
 Defaulting to unpruned grid for atomic number  78.
 Defaulting to unpruned grid for atomic number  78.
 Defaulting to unpruned grid for atomic number  78.
 Defaulting to unpruned grid for atomic number  78.
 Defaulting to unpruned grid for atomic number  78.
 Defaulting to unpruned grid for atomic number  78.
 Defaulting to unpruned grid for atomic number  78.
 Defaulting to unpruned grid for atomic number  78.
 Defaulting to unpruned grid for atomic number  78.
 Defaulting to unpruned grid for atomic number  78.
 Defaulting to unpruned grid for atomic number  78.
 Defaulting to unpruned grid for atomic number  78.
 Defaulting to unpruned grid for atomic number  78.
 Defaulting to unpruned grid for atomic number  78.
 Defaulting to unpruned grid for atomic number  78.
 Defaulting to unpruned grid for atomic number  78.
 Defaulting to unpruned grid for atomic number  78.
 Defaulting to unpruned grid for atomic number  78.
 Defaulting to unpruned grid for atomic number  78.
 Defaulting to unpruned grid for atomic number  78.
 Defaulting to unpruned grid for atomic number  78.
 Defaulting to unpruned grid for atomic number  78.
 Defaulting to unpruned grid for atomic number  78.
 Defaulting to unpruned grid for atomic number  78.
 Defaulting to unpruned grid for atomic number  78.
 Defaulting to unpruned grid for atomic number  78.
 Defaulting to unpruned grid for atomic number  78.
 Defaulting to unpruned grid for atomic number  78.
 Defaulting to unpruned grid for atomic number  78.
 Defaulting to unpruned grid for atomic number  78.
 Defaulting to unpruned grid for atomic number  78.
 Defaulting to unpruned grid for atomic number  78.
 Defaulting to unpruned grid for atomic number  78.
 Defaulting to unpruned grid for atomic number  78.
 Defaulting to unpruned grid for atomic number  78.
 Defaulting to unpruned grid for atomic number  78.
 Defaulting to unpruned grid for atomic number  78.
 Defaulting to unpruned grid for atomic number  78.
 Defaulting to unpruned grid for atomic number  78.
 Defaulting to unpruned grid for atomic number  78.
 Defaulting to unpruned grid for atomic number  78.
 Defaulting to unpruned grid for atomic number  78.
 Defaulting to unpruned grid for atomic number  78.
 Defaulting to unpruned grid for atomic number  78.
 Defaulting to unpruned grid for atomic number  78.
 Defaulting to unpruned grid for atomic number  78.
 Defaulting to unpruned grid for atomic number  78.
 Defaulting to unpruned grid for atomic number  78.
 Defaulting to unpruned grid for atomic number  78.
 Defaulting to unpruned grid for atomic number  78.
 Defaulting to unpruned grid for atomic number  78.
 Defaulting to unpruned grid for atomic number  78.
 Defaulting to unpruned grid for atomic number  78.
 Defaulting to unpruned grid for atomic number  78.
 Defaulting to unpruned grid for atomic number  78.
 NEqPCM:  Using equilibrium solvation (IEInf=0, Eps=   8.9300, EpsInf=   2.0283)
 G2PCM: DoFxE=T DoFxN=T DoGrad=T DoDP/DQ/DG/TGxP=FFFF NFrqRd=   0 IEInf=0 SqF1=F DoCFld=F IF1Alg=4.
 GePol: Maximum number of non-zero 1st derivatives   =     239
 End of G2Drv F.D. properties file   721 does not exist.
 End of G2Drv F.D. properties file   722 does not exist.
 End of G2Drv F.D. properties file   788 does not exist.
 Leave Link 1110 at Sun Feb  8 17:08:38 2026, MaxMem= 16106127360 cpu:            7481.0 elap:             134.2
 (Enter /home/software/g16-shuai/g16/l1002.exe)
 Minotr:  UHF open shell wavefunction.
          IDoAtm=111111111111111111111111111111111
 NEqPCM:  Using equilibrium solvation (IEInf=0, Eps=   8.9300, EpsInf=   2.0283)
          Direct CPHF calculation.
          Differentiating once with respect to electric field.
                with respect to dipole field.
          Differentiating once with respect to nuclear coordinates.
          Requested convergence is 1.0D-08 RMS, and 1.0D-07 maximum.
          Secondary convergence is 1.0D-12 RMS, and 1.0D-12 maximum.
          NewPWx=T KeepS1=F KeepF1=F KeepIn=T MapXYZ=F SortEE=F KeepMc=T.
 Defaulting to unpruned grid for atomic number  78.
         9996 words used for storage of precomputed grid.
 Two-electron integral symmetry not used.
          MDV=   16106127360 using IRadAn=       1.
          Solving linear equations simultaneously, MaxMat=     336.
 FoF2E skips out because all densities are zero.
 CalDSu exits because no D1Ps are significant.
 FoFJK:  IHMeth= 1 ICntrl=       0 DoSepK=F KAlg= 0 I1Cent=           0 FoldK=F
 IRaf= 850000000 NMat=      99 IRICut=     247 DoRegI=T DoRafI=T ISym2E= 0 IDoP0=3 IntGTp=3.
 Defaulting to unpruned grid for atomic number  78.
 Defaulting to unpruned grid for atomic number  78.
[...]
 ,-0.00275083,-0.02481622,0.00175480,0.00994077,-0.01127414,0.00004156,
 -0.01292397,0.00360628,-0.00021097,0.61901640,-0.00973259,0.01022358,-
 0.00006486,0.00490273,0.00307995,0.00002619,-0.00078370,-0.02021340,-0
 .00018221,-0.01065265,-0.00202484,-0.00016472,0.00651864,0.01243438,0.
 00021523,0.00178571,-0.00050324,0.00003312,-0.01030177,-0.00549230,-0.
 00022650,0.00020736,0.00042930,0.00000916,-0.00018714,-0.00002480,-0.0
 0000332,-0.00038395,-0.00015200,-0.00000405,0.00783118,-0.00251431,0.0
 0012177,0.00150224,0.00128767,0.00003561,0.00006493,0.00016274,0.00000
 371,-0.05779675,-0.15482964,-0.00186074,0.08304755,-0.18621992,-0.0000
 9741,-0.00797704,0.01000704,0.00000745,0.00021887,0.00065074,0.0000129
 4,-0.00017937,-0.00061086,-0.00000309,-0.00001375,0.00021172,-0.000059
 18,-0.00005712,0.00007331,-0.00000105,-0.00001431,0.00021601,0.0000699
 2,-0.01955569,-0.22308733,-0.00190125,-0.00620936,-0.02426380,-0.00033
 894,-0.00390008,-0.02361999,0.00100547,-0.00385641,-0.02318195,-0.0017
 5116,0.00385136,-0.00565612,-0.00000005,-0.00334050,0.00336277,-0.0000
 4036,0.04468848,0.76676933,-0.00030647,-0.00008361,0.00352923,0.000303
 54,0.00009662,-0.00207110,-0.00023653,-0.00042329,0.00248903,-0.000324
 71,-0.00002481,0.00077893,0.00022675,0.00028010,0.00073298,0.00013548,
 -0.00008800,0.00022266,-0.00034542,-0.00010842,-0.00020058,0.00000750,
 0.00000520,-0.00033008,-0.00000486,-0.00000346,-0.00006896,-0.00000752
 ,-0.00000262,-0.00003205,0.00006992,0.00001741,0.00195504,0.00004349,0
 .00007564,-0.00013077,-0.00000217,0.00000114,-0.00006415,-0.00381292,-
 0.00236042,-0.05135155,-0.00117569,-0.00043748,-0.05644816,-0.00025822
 ,0.00048344,-0.00198528,0.00002727,0.00001033,-0.00079514,-0.00000201,
 -0.00002971,0.00006960,0.00001732,0.00001055,-0.00000261,-0.00000205,0
 .00000047,0.00001361,-0.00001993,0.00000770,0.00000228,-0.00085730,-0.
 00190030,-0.06253075,0.00014417,0.00041545,-0.00136700,0.00179918,0.02
 645881,0.00717384,-0.00221959,-0.02790773,0.00665813,0.00014254,-0.000
 15244,-0.00064788,-0.00016378,0.00006088,-0.00069120,0.00747571,0.0070
 2251,0.13115285,-0.00285904,0.01703061,-0.00008896,-0.09417756,-0.0189
 9538,-0.00170256,-0.19105660,-0.05161029,-0.00283090,0.02658000,-0.002
 99674,0.00034036,-0.02985738,-0.05211413,-0.00107509,-0.02083006,0.016
 96048,-0.00021691,0.04963407,0.01373848,0.00083561,-0.00027354,0.00006
 089,0.00007412,-0.00000763,0.00013309,0.00000739,0.00103027,0.00004961
 ,0.00000922,-0.00762677,-0.00635485,-0.00024875,-0.00401808,-0.0038896
 6,-0.00010006,0.00008735,-0.00000540,-0.00000245,-0.13627452,0.0630386
 2,-0.00041905,-0.07632289,-0.05541497,-0.00185703,0.00122613,-0.003319
 85,-0.00010437,-0.00038757,0.00153290,0.00004200,0.00013844,0.00127155
 ,0.00000135,-0.00002260,-0.00043082,0.00009645,0.00029385,-0.00003918,
 0.00000574,-0.00002297,-0.00043968,-0.00011744,-0.00396107,-0.00240973
 ,-0.00014113,-0.00022973,0.00016556,-0.00000129,0.00008515,0.00021597,
 -0.00061749,0.00005337,0.00020602,0.00063399,-0.01584308,0.01468969,-0
 .00005901,0.01005713,-0.00410684,0.00017829,-0.00403561,-0.01874284,-0
 .00033027,0.76200938,0.02595553,-0.01545821,-0.00004866,-0.02877228,0.
 00601390,-0.00017417,-0.04553270,-0.13618342,-0.00167491,0.03836232,-0
 .00969126,0.00043177,-0.08534079,-0.08632838,-0.00228986,-0.01927937,0
 .01972827,-0.00019240,0.06744241,0.01211560,0.00118917,-0.00036053,0.0
 0178599,0.00004357,-0.00017513,0.00054732,0.00001876,-0.00108949,-0.00
 078162,-0.00003477,-0.01154887,-0.00523617,-0.00029426,-0.00448188,-0.
 00353974,-0.00010518,0.00016286,-0.00006775,-0.00000209,-0.01304905,-0
 .18119805,-0.00125690,-0.02916738,-0.00733835,-0.00061206,0.00025174,-
 0.00553421,-0.00010408,0.00008580,-0.00012203,0.00008090,0.00025153,0.
 00168332,0.00000540,0.00001510,-0.00056572,0.00014643,0.00020261,-0.00
 005740,0.00000505,0.00001666,-0.00057617,-0.00017280,-0.00512544,-0.00
 067463,-0.00014781,-0.00018663,0.00050992,0.00000361,0.00010841,-0.001
 04067,-0.00049684,0.00008075,-0.00106018,0.00049202,-0.01403422,0.0245
 5805,0.00006384,0.01102029,-0.00577296,0.00018397,-0.02630147,-0.05483
 576,-0.00103323,0.06661624,0.57506336,0.00008940,0.00010717,0.00692494
 ,-0.00200078,-0.00040685,0.00493049,-0.00266906,-0.00162320,-0.0474193
 3,0.00090628,-0.00015817,0.00108885,-0.00144851,-0.00181564,0.00525756
 ,-0.00057078,0.00051749,-0.00028835,0.00147380,0.00029987,0.00667225,0
 .00006763,0.00004933,-0.00447377,0.00000697,0.00001295,-0.00059873,-0.
 00000093,-0.00001326,0.00057617,-0.00031145,-0.00018867,0.00149988,-0.
 00012322,-0.00010852,-0.00004884,0.00000288,-0.00000073,-0.00000858,-0
 .00123006,-0.00028941,-0.06489718,-0.00160484,-0.00096373,0.01353552,-
 0.00006127,-0.00016146,0.00573225,0.00000798,0.00002254,-0.00039797,0.
 00000307,0.00003969,0.00010593,-0.00001053,-0.00002884,0.00000225,0.00
 000796,-0.00000170,-0.00000218,0.00001012,0.00000082,-0.00000458,-0.00
 020658,-0.00009135,0.00568309,0.00000189,0.00000915,-0.00015201,-0.000
 52936,-0.00078834,-0.00031572,0.00054839,0.00078287,-0.00025681,-0.000
 43059,0.00055918,-0.00103178,0.00031509,-0.00013581,-0.00064314,-0.000
 29029,-0.00083846,0.00292841,0.01039184,0.00561664,0.11841391,-0.00150
 635,0.00078584,0.00002585,0.00988263,0.00156768,0.00009433,-0.04331617
 ,-0.02212543,-0.00080089,-0.00745312,0.00008826,-0.00011599,0.01467464
 ,0.01833201,0.00042060,0.00312960,-0.00227650,0.00004897,-0.01385852,-
 0.00518641,-0.00028403,0.00030061,0.00012656,0.00001263,0.00004660,-0.
 00009002,-0.00000157,0.00017668,0.00025083,0.00000540,-0.00002986,0.00
 118404,0.00000570,0.00032753,0.00002363,0.00000522,-0.00002435,-0.0000
 1685,0.00000023,-0.01724233,0.05042495,0.00010953,-0.15422342,-0.14093
 881,-0.00269450,-0.00019150,-0.02138043,-0.00023597,-0.00010096,0.0000
 3150,-0.00000628,0.00001633,-0.00022417,-0.00000159,-0.00001926,0.0000
 5315,-0.00001710,-0.00000155,-0.00000338,-0.00000011,-0.00001924,0.000
 05416,0.00001978,-0.00734906,0.00307821,-0.00012054,0.00053037,0.00157
 375,0.00002385,0.00001262,-0.00141157,0.00010965,0.00001501,-0.0014217
 0,-0.00013475,0.00269476,-0.00346394,-0.00000082,-0.00097729,0.0004118
 0,-0.00001693,-0.00150694,0.00411141,-0.00017264,-0.25753017,0.0401783
 0,-0.00265873,0.58128979,0.00007751,-0.00285390,-0.00004965,-0.0081168
 4,-0.00446927,-0.00018533,-0.01690199,0.02001705,0.00003165,0.00325394
 ,-0.00059978,0.00003640,-0.00419360,-0.00403674,-0.00019151,-0.0034810
 5,0.00366524,-0.00002574,0.00761268,0.00080254,0.00013015,0.00012993,-
 0.00056359,-0.00003192,0.00002229,0.00003151,-0.00000008,0.00007646,-0
 .00002938,0.00000024,-0.00079990,-0.00052669,-0.00001810,-0.00077489,-
 0.00099725,-0.00002285,0.00004285,0.00003045,-0.00000001,0.01761194,-0
 .02619821,-0.00008803,-0.14167822,-0.39311348,-0.00533086,0.00279755,0
 .00605762,0.00008534,0.00034896,0.00062151,0.00002036,0.00005238,0.000
 23025,0.00000084,-0.00000208,-0.00008802,0.00001572,0.00001749,-0.0000
 0929,0.00000104,-0.00000229,-0.00008930,-0.00001915,0.00444095,0.00412
 157,0.00008114,-0.00077153,-0.00127196,-0.00003363,-0.00071188,-0.0009
 6706,0.00055178,-0.00070213,-0.00097729,-0.00059167,-0.00224964,0.0022
 9323,-0.00001195,0.00205028,-0.00035699,0.00003722,0.04653284,-0.07876
 472,-0.00024600,0.02478707,-0.13359384,-0.00053002,-0.03976300,0.93125
 033,-0.00003265,-0.00001485,0.00064169,0.00008414,-0.00005580,0.001131
 65,-0.00089873,-0.00012034,-0.00322309,-0.00013646,0.00000479,0.001030
 84,0.00023108,0.00020479,-0.00038916,0.00004438,-0.00001785,-0.0001701
 4,-0.00018640,-0.00008044,0.00006670,0.00000122,-0.00003691,-0.0003435
 8,0.00000199,-0.00000082,-0.00007134,0.00000117,0.00000288,0.00006441,
 0.00000316,0.00001396,-0.00017722,0.00000165,-0.00000474,-0.00001735,0
 .00000009,0.00000027,-0.00000449,-0.00018010,0.00035048,0.01015469,-0.
 00270274,-0.00535422,-0.05970619,0.00000503,-0.00025662,0.00134318,0.0
 0000370,0.00000102,-0.00000270,0.00000027,-0.00000325,0.00000711,-0.00
 000135,-0.00000069,0.00000301,-0.00000034,-0.00000001,-0.00000701,0.00
 000079,0.00000178,0.00000351,-0.00007227,0.00007599,0.00137071,-0.0000
 0726,0.00000345,0.00032389,-0.00007507,-0.00023766,-0.00005054,0.00005
 860,0.00018451,-0.00006156,0.00002732,-0.00005011,0.00014368,-0.000005
 76,0.00000892,-0.00001400,0.00017063,-0.00086622,0.01525164,-0.0026772
 1,-0.00023168,-0.05000136,0.00642485,0.00778951,0.10572667,-0.00151644
 ,-0.00080556,-0.00010441,0.00996632,-0.00181219,0.00020173,-0.00749443
 ,0.00003717,-0.00016280,-0.04263237,0.02315594,-0.00037594,0.00320934,
 0.00226656,0.00005947,0.01443406,-0.01863452,0.00008262,-0.01387303,0.
 00543420,-0.00016712,0.00004713,0.00008965,0.00000475,0.00031904,-0.00
 012297,0.00001112,0.00017135,-0.00025444,-0.00000092,-0.01834640,-0.05
 052885,-0.00093944,-0.14970763,0.13691382,0.00015787,0.00011711,0.0214
 6795,0.00022284,-0.00003641,-0.00119143,-0.00001814,0.00033806,-0.0000
 4192,0.00000631,-0.00002474,0.00001784,-0.00000068,-0.00011068,-0.0000
 2104,0.00000566,-0.00746800,-0.00289084,-0.00010124,0.00005095,0.00139
 578,-0.00009114,0.00051889,-0.00160263,-0.00002843,0.00004605,0.001405
 29,0.00013589,0.00001923,0.00022730,0.00000186,-0.00000123,0.00000340,
 0.00000003,-0.00002050,-0.00005456,0.00001731,-0.00001971,-0.00005459,
 -0.00002016,-0.25832845,-0.03807304,-0.00361453,-0.00234583,-0.0054053
 3,-0.00044766,-0.00101274,-0.00040044,-0.00000860,0.00278232,0.0034506
 7,0.00008688,-0.00117300,0.00023148,-0.00001954,0.58247258,-0.00009709
 ,-0.00283940,-0.00004809,0.00788300,-0.00457749,0.00007021,-0.00314696
 ,-0.00054464,-0.00006645,0.01794363,0.01936017,0.00049655,0.00348944,0
 .00356961,0.00008648,0.00386311,-0.00393070,0.00003890,-0.00737385,0.0
 0083772,-0.00011273,-0.00002248,0.00003011,-0.00000127,-0.00013387,-0.
 00055992,0.00000873,-0.00007988,-0.00002372,-0.00000178,-0.01775195,-0
 .02505002,-0.00066544,0.13763252,-0.39779355,-0.00168373,-0.00270079,0
 .00574026,0.00001584,0.00079576,-0.00052201,0.00000310,0.00075359,-0.0
 0100942,0.00000094,-0.00004211,0.00003092,-0.00000051,-0.00033643,0.00
 062594,0.00000825,-0.00425154,0.00424682,-0.00004086,0.00067763,-0.000
 99156,0.00056730,0.00074663,-0.00125654,-0.00002070,0.00070522,-0.0010
 2238,-0.00058156,-0.00004887,0.00022846,0.00000043,-0.00001705,-0.0000
 0930,0.00000022,0.00000055,-0.00008798,0.00001609,0.00000148,-0.000088
 15,-0.00001846,-0.02263628,-0.13247033,-0.00122550,-0.04778039,-0.0778
 8189,-0.00170616,-0.00204361,-0.00031843,-0.00002721,0.00224398,0.0022
 0411,0.00006546,-0.00020118,0.00076655,0.00000160,0.04547903,0.9296531
 7,-0.00003523,-0.00003448,0.00063997,0.00020400,-0.00009304,0.00113482
 ,-0.00015208,-0.00001886,0.00102918,-0.00040507,0.00058087,-0.00320414
 ,0.00008939,0.00008197,-0.00016858,0.00028713,-0.00029708,-0.00045283,
 -0.00028956,0.00008364,0.00006446,0.00000223,0.00000243,-0.00007112,0.
 00000880,-0.00000261,-0.00034790,0.00000090,-0.00000485,0.00006432,-0.
 00063390,-0.00116387,0.01013104,0.00015105,-0.00169156,-0.05966214,-0.
 00004713,0.00037317,0.00135044,0.00001168,-0.00002908,-0.00017778,0.00
 001412,-0.00001013,-0.00001716,-0.00000082,0.00000074,-0.00000444,-0.0
 0000680,0.00000410,-0.00000319,-0.00020511,-0.00000835,0.00136975,0.00
 007814,-0.00019396,-0.00005102,0.00001617,-0.00004923,0.00032339,-0.00
 004688,0.00023113,-0.00005842,-0.00000049,0.00000460,0.00000727,0.0000
 0036,-0.00000004,-0.00000705,0.00000073,-0.00000275,0.00000363,-0.0000
 0132,-0.00000029,0.00000276,-0.00345861,-0.00147075,-0.05000437,-0.000
 78615,-0.00111425,0.01523751,-0.00003440,-0.00000808,-0.00001458,0.000
 06421,0.00007587,0.00014606,-0.00002036,0.00001096,0.00007597,0.007813
 21,0.00991668,0.10582319,0.00026274,0.00081354,0.00000405,-0.00025406,
 0.00021955,0.00000336,0.00204163,0.00079486,0.00005497,0.00008237,-0.0
 0012181,-0.00000099,-0.00043319,0.00006390,-0.00005802,-0.00010068,0.0
 0021626,0.00000143,0.00029897,-0.00036587,-0.00000034,-0.00071343,-0.0
 0036682,-0.00007967,0.00002164,-0.00002296,0.00000046,0.00001153,0.000
 01072,-0.00000046,-0.00013238,-0.00016964,-0.00000661,-0.00005061,-0.0
 0001796,-0.00000082,-0.00000390,-0.00000462,-0.00000011,-0.00538526,-0
 .00244701,-0.00015416,0.01285553,-0.01038811,0.00006503,-0.00008265,0.
 00077155,0.00005383,0.00004787,0.00005988,0.00000172,0.00000616,-0.000
 00950,-0.00000032,-0.00000281,0.00000087,-0.00000007,0.00000410,-0.000
 00202,0.00000008,-0.00000280,0.00000078,0.,0.00125362,0.00005618,0.000
 00110,-0.00013410,-0.00037185,-0.00000596,-0.00003453,0.00001526,0.000
 02700,-0.00002956,0.00000787,-0.00002711,-0.00012550,0.00010045,0.0000
 0062,0.00003263,-0.00007699,0.00000078,-0.00113610,-0.00472751,-0.0001
 4400,-0.00851307,0.03034844,0.00022910,-0.10656003,0.11005169,-0.00006
 397,-0.00001412,-0.00001136,-0.00000022,0.10679996,-0.00006701,0.00012
 955,-0.00000625,0.00023384,0.00006437,0.00000595,-0.00028885,-0.000711
 83,-0.00000328,-0.00018626,0.00003106,-0.00000278,0.00001257,0.0005009
 1,-0.00001718,0.00012766,-0.00011893,0.00000162,-0.00035780,-0.0001152
 6,-0.00000662,-0.00017871,-0.00016627,-0.00008023,0.00000656,-0.000006
 11,0.00000007,0.00001010,0.00001325,-0.00000034,0.00000665,0.00000425,
 0.00000058,0.00003387,0.00001430,0.00000067,0.00000056,0.00000055,0.,-
 0.00137959,0.00058663,-0.00004655,0.01367983,-0.00701212,0.00011551,-0
 .00024384,0.00040773,0.00003423,0.00003716,-0.00001441,0.00000029,-0.0
 0000080,0.00000413,0.00000004,0.00000222,0.00000053,0.00000040,-0.0000
 0844,-0.00000028,-0.00000012,0.00000216,0.00000056,-0.00000032,0.00102
 909,0.00003175,0.00000397,-0.00020240,-0.00031708,-0.00000689,-0.00001
 664,0.00002195,0.00000257,-0.00001286,0.00001650,-0.00000223,0.0001072
 3,-0.00011754,0.00000120,-0.00002750,0.00002216,-0.00000007,-0.0023017
 1,-0.00261689,-0.00011834,-0.00176427,0.00556146,0.00006337,0.11620163
 ,-0.32036084,-0.00131201,-0.00002594,-0.00001959,-0.00000060,-0.124428
 20,0.32416289,-0.00000883,0.00000929,0.00072768,-0.00000013,0.00000197
 ,-0.00027008,0.00004208,0.00001723,-0.00075404,0.00000511,-0.00000320,
 0.00002940,-0.00005055,0.00000675,-0.00007420,-0.00000271,0.00000493,-
 0.00002384,0.00001007,-0.00000413,-0.00012144,-0.00007737,-0.00010267,
 0.00035091,0.00000034,-0.00000054,0.00000333,-0.00000062,-0.00000018,0
 .00006582,-0.00000562,-0.00000356,-0.00000105,-0.00000156,-0.00000134,
 -0.00000649,-0.00000013,-0.00000013,0.00000543,-0.00014068,-0.00006027
 ,0.00323087,0.00030844,-0.00021267,0.00074482,0.00004359,0.00004798,-0
 .00331737,0.00000139,0.00000132,-0.00001454,0.00000008,0.00000022,0.00
 000625,-0.00000217,-0.00000063,-0.00000067,-0.00000002,-0.00000008,0.0
 0000176,0.00000216,0.00000040,-0.00000069,0.00001151,-0.00001487,0.001
 37092,-0.00000545,-0.00001179,-0.00003898,0.00013805,-0.00021725,-0.00
 005045,-0.00013722,0.00022127,-0.00005143,-0.00000230,0.00000522,-0.00
 008640,0.00000404,-0.00000173,-0.00004537,-0.00011485,-0.00015173,0.00
 581914,-0.00009188,0.00051284,-0.00287077,-0.00002365,-0.00141631,-0.0
 2310217,-0.00000027,0.00000032,0.00000253,0.00009934,0.00137331,0.0184
 7149,0.00025622,-0.00081987,-0.00001903,-0.00026777,-0.00020994,-0.000
 00262,0.00009083,0.00012129,0.00000282,0.00203624,-0.00084936,0.000034
 61,-0.00010454,-0.00022223,-0.00000312,-0.00045028,-0.00006285,-0.0000
 4382,0.00031979,0.00038229,0.00001048,0.00002488,0.00002364,0.00000051
 ,-0.00075838,0.00040694,-0.00005636,0.00001153,-0.00001199,-0.00000117
 ,-0.00532328,0.00254632,-0.00010014,0.01280918,0.01005464,0.00029970,-
 0.00009110,-0.00076149,0.00004067,-0.00014264,0.00017171,0.00000130,-0
 .00004991,0.00002167,-0.00000038,-0.00000355,0.00000472,-0.00000013,0.
 00004612,-0.00005402,0.00000020,0.00123972,-0.00008248,-0.00000924,-0.
 00003047,-0.00000717,-0.00002669,-0.00012593,0.00036969,0.00000544,-0.
 00003579,-0.00001177,0.00002818,0.00000599,0.00000496,0.00000014,0.000
 00363,0.00000215,0.,-0.00000250,0.00000026,-0.00000042,-0.00000244,0.0
 0000026,0.00000038,-0.00897382,-0.03007306,-0.00043728,-0.00100679,0.0
 0472360,-0.00004905,0.00004695,0.00008249,0.00000182,-0.00012752,-0.00
 010444,-0.00000228,-0.00001407,0.00001072,-0.00000023,-0.11036673,-0.1
 1353989,-0.00261798,-0.00000996,-0.00000032,-0.00000016,0.11099638,0.0
 0006616,0.00014112,-0.00000459,-0.00022849,0.00007309,-0.00000157,0.00
 018529,0.00002594,0.00000318,0.00024432,-0.00070277,0.00000571,-0.0001
 2672,-0.00011410,-0.00000247,0.00002143,0.00048312,0.00001664,0.000351
 37,-0.00012121,0.00000531,-0.00000616,-0.00000610,-0.00000003,0.000220
 16,-0.00014391,0.00001965,-0.00000986,0.00001321,-0.00000068,0.0014816
 5,0.00051814,-0.00000961,-0.01402170,-0.00696639,-0.00030442,0.0002518
 3,0.00041829,0.00004597,-0.00000748,0.00000137,0.00000050,-0.00003241,
 0.00001496,-0.00000027,-0.00000042,0.00000048,-0.00000005,-0.00003866,
 -0.00001096,-0.00000048,-0.00104898,0.00004778,-0.00002229,0.00001748,
 0.00002270,0.00000327,0.00020003,-0.00032625,-0.00000315,0.00001323,0.
 00001633,-0.00000218,0.00000067,0.00000285,-0.00000002,0.00000821,-0.0
 0000046,0.00000020,-0.00000206,0.00000084,0.00000024,-0.00000200,0.000
 00084,-0.00000028,0.00200606,0.00605047,0.00012950,0.00227925,-0.00273
 264,-0.00006969,0.00003007,0.00002178,0.00000079,-0.00010614,-0.000114
 79,-0.00000236,0.00002568,-0.00002026,0.00000028,-0.11965575,-0.316296
 80,-0.00517230,0.00000042,0.00000259,0.00000002,0.12788352,0.31970075,
 -0.00000897,-0.00001395,0.00072780,0.00000141,-0.00000471,-0.00027099,
 -0.00000397,0.00000184,0.00002950,0.00004472,-0.00000225,-0.00075448,-
 0.00000031,-0.00000311,-0.00002415,-0.00003479,-0.00001877,-0.00005079
 ,0.00000475,0.00000855,-0.00011930,0.00000020,0.00000021,0.00000302,-0
 .00006383,0.00003843,0.00037178,-0.00000111,-0.00000068,0.00006583,-0.
 00009857,-0.00000251,0.00323236,0.00003682,0.00008341,0.00074964,0.000
 05044,0.00003135,-0.00331792,0.00000229,0.00000193,-0.00000048,0.00000
 022,-0.00000090,-0.00000647,-0.00000012,-0.00000002,0.00000539,0.00000
 024,-0.00000059,-0.00001467,-0.00001162,-0.00002228,0.00136997,-0.0001
 4111,-0.00021409,-0.00005556,0.00000326,-0.00000265,-0.00003911,0.0001
 4105,0.00021958,-0.00004631,-0.00000001,0.00000056,0.00000611,-0.00000
 004,-0.00000007,0.00000183,0.00000210,-0.00000070,-0.00000061,-0.00000
 219,0.00000043,-0.00000071,-0.00005082,-0.00035388,-0.00289005,-0.0001
 0700,-0.00001628,0.00582014,-0.00000150,0.00000030,-0.00004553,0.00000
 127,0.00000184,-0.00008647,-0.00000011,0.00000046,0.00000257,-0.002706
 52,-0.00509665,-0.02316157,-0.00000002,0.,-0.00000036,0.00294384,0.005
 36517,0.01849958\\-0.00000080,0.00000040,-0.00000110,0.00000104,-0.000
 00061,0.00000110,0.00000076,0.00000074,0.00000166,0.00000122,-0.000000
 87,-0.00000020,0.00000259,0.00000124,0.00000231,0.00000261,-0.00000130
 ,0.00000045,0.00000239,-0.00000016,0.00000170,0.00000277,0.00000169,0.
 00000329,0.00000273,-0.00000171,0.00000002,0.00000368,-0.00000006,0.00
 000219,-0.00000053,-0.00000148,-0.00000175,-0.00000014,-0.00000320,-0.
 00000330,-0.00000043,-0.00000408,-0.00000422,-0.00000007,0.00000138,0.
 00000120,-0.00000022,0.00000328,0.00000304,-0.00000045,0.00000411,0.00
 000368,-0.00000263,0.00000014,-0.00000157,-0.00000205,-0.00000260,-0.0
 0000378,-0.00000161,-0.00000345,-0.00000433,-0.00000241,-0.00000186,-0
 .00000326,-0.00000293,-0.00000263,-0.00000433,-0.00000207,0.00000270,0
 .00000134,-0.00000244,0.00000192,0.00000038,-0.00000164,0.00000270,0.0
 0000162,-0.00000296,0.00000351,0.00000161,0.00000056,-0.00000185,-0.00
 000140,-0.00000104,-0.00000246,-0.00000298,-0.00000118,0.00000240,0.00
 000186,0.00000100,0.00000227,0.00000211,0.00000054,0.00000279,0.000003
 18,0.00000071,-0.00000295,-0.00000230,0.00000144,0.00000323,0.00000399
 ,0.00000157,-0.00000323,-0.00000220\\\@


 GOD DOES NOT PLAY WITH DICE.
               -- A. EINSTEIN
 Job cpu time:       2 days 12 hours 39 minutes  8.8 seconds.
 Elapsed time:       0 days  1 hours  5 minutes 40.0 seconds.
 File lengths (MBytes):  RWF=   1176 Int=      0 D2E=      0 Chk=     32 Scr=      1
 Normal termination of Gaussian 16 at Sun Feb  8 18:10:37 2026.
