 Entering Gaussian System, Link 0=g16
 Input=15_1.com
 Output=15_1.log
 Initial command:
 /home/software/g16-shuai/g16/l1.exe "/tmp/zgshuai_229478/g16_tmp/Gau-450877.inp" -scrdir="/tmp/zgshuai_229478/g16_tmp/"
 Entering Link 1 = /home/software/g16-shuai/g16/l1.exe PID=    450878.
  
 Copyright (c) 1988-2019, Gaussian, Inc.  All Rights Reserved.
  
 This is part of the Gaussian(R) 16 program.  It is based on
 the Gaussian(R) 09 system (copyright 2009, Gaussian, Inc.),
 the Gaussian(R) 03 system (copyright 2003, Gaussian, Inc.),
 the Gaussian(R) 98 system (copyright 1998, Gaussian, Inc.),
 the Gaussian(R) 94 system (copyright 1995, Gaussian, Inc.),
 the Gaussian 92(TM) system (copyright 1992, Gaussian, Inc.),
 the Gaussian 90(TM) system (copyright 1990, Gaussian, Inc.),
 the Gaussian 88(TM) system (copyright 1988, Gaussian, Inc.),
 the Gaussian 86(TM) system (copyright 1986, Carnegie Mellon
 University), and the Gaussian 82(TM) system (copyright 1983,
 Carnegie Mellon University). Gaussian is a federally registered
 trademark of Gaussian, Inc.
  
 This software contains proprietary and confidential information,
 including trade secrets, belonging to Gaussian, Inc.
  
 This software is provided under written license and may be
 used, copied, transmitted, or stored only in accord with that
 written license.
  
 The following legend is applicable only to US Government
 contracts under FAR:
  
                    RESTRICTED RIGHTS LEGEND
  
 Use, reproduction and disclosure by the US Government is
 subject to restrictions as set forth in subparagraphs (a)
 and (c) of the Commercial Computer Software - Restricted
 Rights clause in FAR 52.227-19.
  
 Gaussian, Inc.
 340 Quinnipiac St., Bldg. 40, Wallingford CT 06492
  
  
 ---------------------------------------------------------------
 Warning -- This program may not be used in any manner that
 competes with the business of Gaussian, Inc. or will provide
 assistance to any competitor of Gaussian, Inc.  The licensee
 of this program is prohibited from giving any competitor of
 Gaussian, Inc. access to this program.  By using this program,
 the user acknowledges that Gaussian, Inc. is engaged in the
 business of creating and licensing software in the field of
 computational chemistry and represents and warrants to the
 licensee that it is not a competitor of Gaussian, Inc. and that
 it will not use this program in any manner prohibited above.
 ---------------------------------------------------------------
  

 Cite this work as:
 Gaussian 16, Revision C.01,
 M. J. Frisch, G. W. Trucks, H. B. Schlegel, G. E. Scuseria, 
 M. A. Robb, J. R. Cheeseman, G. Scalmani, V. Barone, 
 G. A. Petersson, H. Nakatsuji, X. Li, M. Caricato, A. V. Marenich, 
 J. Bloino, B. G. Janesko, R. Gomperts, B. Mennucci, H. P. Hratchian, 
 J. V. Ortiz, A. F. Izmaylov, J. L. Sonnenberg, D. Williams-Young, 
 F. Ding, F. Lipparini, F. Egidi, J. Goings, B. Peng, A. Petrone, 
 T. Henderson, D. Ranasinghe, V. G. Zakrzewski, J. Gao, N. Rega, 
 G. Zheng, W. Liang, M. Hada, M. Ehara, K. Toyota, R. Fukuda, 
 J. Hasegawa, M. Ishida, T. Nakajima, Y. Honda, O. Kitao, H. Nakai, 
 T. Vreven, K. Throssell, J. A. Montgomery, Jr., J. E. Peralta, 
 F. Ogliaro, M. J. Bearpark, J. J. Heyd, E. N. Brothers, K. N. Kudin, 
 V. N. Staroverov, T. A. Keith, R. Kobayashi, J. Normand, 
 K. Raghavachari, A. P. Rendell, J. C. Burant, S. S. Iyengar, 
 J. Tomasi, M. Cossi, J. M. Millam, M. Klene, C. Adamo, R. Cammi, 
 J. W. Ochterski, R. L. Martin, K. Morokuma, O. Farkas, 
 J. B. Foresman, and D. J. Fox, Gaussian, Inc., Wallingford CT, 2019.
 
 ******************************************
 Gaussian 16:  ES64L-G16RevC.01  3-Jul-2019
                 8-Feb-2026 
 ******************************************
 %nprocshared=56
 Will use up to   56 processors via shared memory.
 %mem=120GB
 %chk=s0_opt.chk
 ----------------------------------------------------------------------
 #p opt=calcall TPSSh/def2svp scrf=solvent=CH2Cl2 empiricaldispersion=g
 d3bj IOp(3/174=1000000,3/175=2238200,3/177=452900,3/178=4655000) nosym
 m
 ----------------------------------------------------------------------
 1/10=4,18=20,19=15,26=3,38=1/1,3;
 2/9=110,12=2,15=1,17=6,18=5,40=1/2;
 3/5=43,7=101,11=2,25=1,30=1,70=2201,71=2,72=9,74=-35,124=41,140=1,174=1000000,175=2238200,177=452900,178=4655000/1,2,3;
 4//1;
 5/5=2,38=5,53=9/2;
 8/6=4,10=90,11=11/1;
 11/6=1,8=1,9=11,15=111,16=1,31=1/1,2,10;
 10/6=1,31=1/2;
 6/7=2,8=2,9=2,10=2,18=1,28=1/1;
 7/10=1,25=1,30=1/1,2,3,16;
 1/10=4,18=20,19=15,26=3/3(3);
 2/9=110,15=1/2;
 7/8=1,9=1,25=1,30=1,44=-1/16;
 99//99;
 2/9=110,15=1/2;
 3/5=43,7=101,11=2,25=1,30=1,70=2205,71=2,72=9,74=-35,124=41,140=1,174=1000000,175=2238200,177=452900,178=4655000/1,2,3;
 4/5=5,16=3,69=1/1;
 5/5=2,38=5,53=9/2;
 8/6=4,10=90,11=11/1;
 11/6=1,8=1,9=11,15=111,16=1,31=1/1,2,10;
 10/6=1,31=1/2;
 7/10=1,25=1,30=1/1,2,3,16;
 1/10=4,18=20,19=15,26=3/3(-8);
 2/9=110,15=1/2;
 6/7=2,8=2,9=2,10=2,18=1,19=2,28=1/1;
 7/8=1,9=1,25=1,30=1,44=-1/16;
 99//99;
 Leave Link    1 at Sun Feb  8 03:41:06 2026, MaxMem= 16106127360 cpu:               1.1 elap:               0.0
 (Enter /home/software/g16-shuai/g16/l101.exe)
 -----------
 test2-s0opt
 -----------
 Symbolic Z-matrix:
 Charge =  0 Multiplicity = 1
 Pt                    0.51895  -0.2883    0. 
 C                     0.51895   1.7717    0. 
 C                    -0.68918   2.46922  -0.01911 
 C                     1.7267    2.4692    0.01922 
 C                    -0.68945   3.86393  -0.01969 
 C                     1.72659   3.86434   0.01964 
 C                     0.5188    4.56176   0.00005 
 H                    -1.64166   4.41379  -0.03538 
 H                     2.67899   4.41403   0.03521 
 H                     0.51833   5.66144  -0.00034 
 C                     2.49289  -0.0276   -0.04426 
 C                     4.78722   0.1418    0.12442 
 H                     5.85569  -0.05059   0.19026 
 C                    -1.51527  -0.00912   0.00348 
 C                    -3.8083    0.21994  -0.09982 
 H                    -4.88257   0.05517  -0.14188 
 Cl                    0.51895  -2.5683    0. 
 C                     3.86528  -2.29019  -0.05402 
 H                     3.38739  -2.71353   0.80465 
 H                     3.3797   -2.6398   -0.94108 
 H                     4.89393  -2.58428  -0.07097 
 C                    -2.94274  -2.23737  -0.00572 
 H                    -2.46444  -2.65288  -0.86797 
 H                    -2.4762   -2.61765   0.87894 
 H                    -3.97807  -2.50754  -0.00724 
 N                     2.7372    1.30721   0.03544 
 N                     3.77146  -0.75444   0.01126 
 N                    -2.81253  -0.70318  -0.03578 
 N                    -1.72833   1.3328   -0.03692 
 C                    -3.21099   1.60589  -0.10616 
 C                     4.22367   1.5416    0.1501 
 H                    -3.72084   2.4345   -0.14557 
 H                     4.75223   2.35613   0.22254 
 
 ITRead=  0  0  0  0  0  0  0  0  0  0  0  0  0  0  0  0  0  0  0  0
 ITRead=  0  0  0  0  0  0  0  0  0  0  0  0  0
 MicOpt= -1 -1 -1 -1 -1 -1 -1 -1 -1 -1 -1 -1 -1 -1 -1 -1 -1 -1 -1 -1
 MicOpt= -1 -1 -1 -1 -1 -1 -1 -1 -1 -1 -1 -1 -1
 NAtoms=     33 NQM=       33 NQMF=       0 NMMI=      0 NMMIF=      0
                NMic=       0 NMicF=      0.
                    Isotopes and Nuclear Properties:
 (Nuclear quadrupole moments (NQMom) in fm**2, nuclear magnetic moments (NMagM)
  in nuclear magnetons)

  Atom         1           2           3           4           5           6           7           8           9          10
 IAtWgt=         195          12          12          12          12          12          12           1           1           1
 AtmWgt= 194.9648000  12.0000000  12.0000000  12.0000000  12.0000000  12.0000000  12.0000000   1.0078250   1.0078250   1.0078250
 NucSpn=           1           0           0           0           0           0           0           1           1           1
 AtZEff=  -0.0000000  -0.0000000  -0.0000000  -0.0000000  -0.0000000  -0.0000000  -0.0000000  -0.0000000  -0.0000000  -0.0000000
 NQMom=    0.0000000   0.0000000   0.0000000   0.0000000   0.0000000   0.0000000   0.0000000   0.0000000   0.0000000   0.0000000
 NMagM=    0.6095000   0.0000000   0.0000000   0.0000000   0.0000000   0.0000000   0.0000000   2.7928460   2.7928460   2.7928460
 AtZNuc=  78.0000000   6.0000000   6.0000000   6.0000000   6.0000000   6.0000000   6.0000000   1.0000000   1.0000000   1.0000000

  Atom        11          12          13          14          15          16          17          18          19          20
 IAtWgt=          12          12           1          12          12           1          35          12           1           1
 AtmWgt=  12.0000000  12.0000000   1.0078250  12.0000000  12.0000000   1.0078250  34.9688527  12.0000000   1.0078250   1.0078250
 NucSpn=           0           0           1           0           0           1           3           0           1           1
 AtZEff=  -0.0000000  -0.0000000  -0.0000000  -0.0000000  -0.0000000  -0.0000000  -0.0000000  -0.0000000  -0.0000000  -0.0000000
 NQMom=    0.0000000   0.0000000   0.0000000   0.0000000   0.0000000   0.0000000  -8.1650000   0.0000000   0.0000000   0.0000000
 NMagM=    0.0000000   0.0000000   2.7928460   0.0000000   0.0000000   2.7928460   0.8218740   0.0000000   2.7928460   2.7928460
 AtZNuc=   6.0000000   6.0000000   1.0000000   6.0000000   6.0000000   1.0000000  17.0000000   6.0000000   1.0000000   1.0000000

  Atom        21          22          23          24          25          26          27          28          29          30
 IAtWgt=           1          12           1           1           1          14          14          14          14          12
 AtmWgt=   1.0078250  12.0000000   1.0078250   1.0078250   1.0078250  14.0030740  14.0030740  14.0030740  14.0030740  12.0000000
 NucSpn=           1           0           1           1           1           2           2           2           2           0
 AtZEff=  -0.0000000  -0.0000000  -0.0000000  -0.0000000  -0.0000000  -0.0000000  -0.0000000  -0.0000000  -0.0000000  -0.0000000
 NQMom=    0.0000000   0.0000000   0.0000000   0.0000000   0.0000000   2.0440000   2.0440000   2.0440000   2.0440000   0.0000000
 NMagM=    2.7928460   0.0000000   2.7928460   2.7928460   2.7928460   0.4037610   0.4037610   0.4037610   0.4037610   0.0000000
 AtZNuc=   1.0000000   6.0000000   1.0000000   1.0000000   1.0000000   7.0000000   7.0000000   7.0000000   7.0000000   6.0000000

  Atom        31          32          33
 IAtWgt=          12           1           1
 AtmWgt=  12.0000000   1.0078250   1.0078250
 NucSpn=           0           1           1
 AtZEff=  -0.0000000  -0.0000000  -0.0000000
 NQMom=    0.0000000   0.0000000   0.0000000
 NMagM=    0.0000000   2.7928460   2.7928460
 AtZNuc=   6.0000000   1.0000000   1.0000000
 Leave Link  101 at Sun Feb  8 03:41:06 2026, MaxMem= 16106127360 cpu:              16.3 elap:               0.3
 (Enter /home/software/g16-shuai/g16/l103.exe)

 GradGradGradGradGradGradGradGradGradGradGradGradGradGradGradGradGradGrad
 Berny optimization.
 Initialization pass.
                           ----------------------------
                           !    Initial Parameters    !
                           ! (Angstroms and Degrees)  !
 --------------------------                            --------------------------
 ! Name  Definition              Value          Derivative Info.                !
 --------------------------------------------------------------------------------
 ! R1    R(1,2)                  2.06           calculate D2E/DX2 analytically  !
 ! R2    R(1,11)                 1.9916         calculate D2E/DX2 analytically  !
 ! R3    R(1,14)                 2.0533         calculate D2E/DX2 analytically  !
 ! R4    R(1,17)                 2.28           calculate D2E/DX2 analytically  !
 ! R5    R(2,3)                  1.3952         calculate D2E/DX2 analytically  !
 ! R6    R(2,4)                  1.3948         calculate D2E/DX2 analytically  !
 ! R7    R(3,5)                  1.3947         calculate D2E/DX2 analytically  !
 ! R8    R(3,29)                 1.54           calculate D2E/DX2 analytically  !
 ! R9    R(4,6)                  1.3951         calculate D2E/DX2 analytically  !
 ! R10   R(4,26)                 1.54           calculate D2E/DX2 analytically  !
 ! R11   R(5,7)                  1.3954         calculate D2E/DX2 analytically  !
 ! R12   R(5,8)                  1.0997         calculate D2E/DX2 analytically  !
 ! R13   R(6,7)                  1.3948         calculate D2E/DX2 analytically  !
 ! R14   R(6,9)                  1.0998         calculate D2E/DX2 analytically  !
 ! R15   R(7,10)                 1.0997         calculate D2E/DX2 analytically  !
 ! R16   R(11,26)                1.3593         calculate D2E/DX2 analytically  !
 ! R17   R(11,27)                1.4718         calculate D2E/DX2 analytically  !
 ! R18   R(12,13)                1.0876         calculate D2E/DX2 analytically  !
 ! R19   R(12,27)                1.3593         calculate D2E/DX2 analytically  !
 ! R20   R(12,31)                1.5092         calculate D2E/DX2 analytically  !
 ! R21   R(14,28)                1.4718         calculate D2E/DX2 analytically  !
 ! R22   R(14,29)                1.3593         calculate D2E/DX2 analytically  !
 ! R23   R(15,16)                1.0876         calculate D2E/DX2 analytically  !
 ! R24   R(15,28)                1.3593         calculate D2E/DX2 analytically  !
 ! R25   R(15,30)                1.5092         calculate D2E/DX2 analytically  !
 ! R26   R(18,19)                1.07           calculate D2E/DX2 analytically  !
 ! R27   R(18,20)                1.07           calculate D2E/DX2 analytically  !
 ! R28   R(18,21)                1.07           calculate D2E/DX2 analytically  !
 ! R29   R(18,27)                1.54           calculate D2E/DX2 analytically  !
 ! R30   R(22,23)                1.07           calculate D2E/DX2 analytically  !
 ! R31   R(22,24)                1.07           calculate D2E/DX2 analytically  !
 ! R32   R(22,25)                1.07           calculate D2E/DX2 analytically  !
 ! R33   R(22,28)                1.54           calculate D2E/DX2 analytically  !
 ! R34   R(26,31)                1.5092         calculate D2E/DX2 analytically  !
 ! R35   R(29,30)                1.5092         calculate D2E/DX2 analytically  !
 ! R36   R(30,32)                0.9737         calculate D2E/DX2 analytically  !
 ! R37   R(31,33)                0.9737         calculate D2E/DX2 analytically  !
 ! A1    A(2,1,11)              82.4783         calculate D2E/DX2 analytically  !
 ! A2    A(2,1,14)              82.1854         calculate D2E/DX2 analytically  !
 ! A3    A(11,1,14)            164.6182         calculate D2E/DX2 analytically  !
 ! A4    A(11,1,17)             97.5217         calculate D2E/DX2 analytically  !
 ! A5    A(14,1,17)             97.8146         calculate D2E/DX2 analytically  !
 ! A6    A(1,2,3)              119.9972         calculate D2E/DX2 analytically  !
 ! A7    A(1,2,4)              120.0043         calculate D2E/DX2 analytically  !
 ! A8    A(3,2,4)              119.9985         calculate D2E/DX2 analytically  !
 ! A9    A(2,3,5)              120.0086         calculate D2E/DX2 analytically  !
 ! A10   A(2,3,29)             102.4468         calculate D2E/DX2 analytically  !
 ! A11   A(5,3,29)             137.5445         calculate D2E/DX2 analytically  !
 ! A12   A(2,4,6)              120.0            calculate D2E/DX2 analytically  !
 ! A13   A(2,4,26)             101.0106         calculate D2E/DX2 analytically  !
 ! A14   A(6,4,26)             138.9894         calculate D2E/DX2 analytically  !
 ! A15   A(3,5,7)              119.9942         calculate D2E/DX2 analytically  !
 ! A16   A(3,5,8)              120.0128         calculate D2E/DX2 analytically  !
 ! A17   A(7,5,8)              119.993          calculate D2E/DX2 analytically  !
 ! A18   A(4,6,7)              120.0047         calculate D2E/DX2 analytically  !
 ! A19   A(4,6,9)              119.984          calculate D2E/DX2 analytically  !
 ! A20   A(7,6,9)              120.0113         calculate D2E/DX2 analytically  !
 ! A21   A(5,7,6)              119.994          calculate D2E/DX2 analytically  !
 ! A22   A(5,7,10)             119.9811         calculate D2E/DX2 analytically  !
 ! A23   A(6,7,10)             120.0249         calculate D2E/DX2 analytically  !
 ! A24   A(1,11,26)            107.7809         calculate D2E/DX2 analytically  !
 ! A25   A(1,11,27)            142.7076         calculate D2E/DX2 analytically  !
 ! A26   A(26,11,27)           109.0622         calculate D2E/DX2 analytically  !
 ! A27   A(13,12,27)           128.4975         calculate D2E/DX2 analytically  !
 ! A28   A(13,12,31)           121.9965         calculate D2E/DX2 analytically  !
 ! A29   A(27,12,31)           109.5061         calculate D2E/DX2 analytically  !
 ! A30   A(1,14,28)            144.0052         calculate D2E/DX2 analytically  !
 ! A31   A(1,14,29)            106.8255         calculate D2E/DX2 analytically  !
 ! A32   A(28,14,29)           109.0622         calculate D2E/DX2 analytically  !
 ! A33   A(16,15,28)           128.4975         calculate D2E/DX2 analytically  !
 ! A34   A(16,15,30)           121.9965         calculate D2E/DX2 analytically  !
 ! A35   A(28,15,30)           109.5061         calculate D2E/DX2 analytically  !
 ! A36   A(19,18,20)           109.4713         calculate D2E/DX2 analytically  !
 ! A37   A(19,18,21)           109.4712         calculate D2E/DX2 analytically  !
 ! A38   A(19,18,27)           109.4712         calculate D2E/DX2 analytically  !
 ! A39   A(20,18,21)           109.4712         calculate D2E/DX2 analytically  !
 ! A40   A(20,18,27)           109.4712         calculate D2E/DX2 analytically  !
 ! A41   A(21,18,27)           109.4712         calculate D2E/DX2 analytically  !
 ! A42   A(23,22,24)           109.4713         calculate D2E/DX2 analytically  !
 ! A43   A(23,22,25)           109.4712         calculate D2E/DX2 analytically  !
 ! A44   A(23,22,28)           109.4712         calculate D2E/DX2 analytically  !
 ! A45   A(24,22,25)           109.4712         calculate D2E/DX2 analytically  !
 ! A46   A(24,22,28)           109.4712         calculate D2E/DX2 analytically  !
 ! A47   A(25,22,28)           109.4712         calculate D2E/DX2 analytically  !
 ! A48   A(4,26,11)            128.4902         calculate D2E/DX2 analytically  !
 ! A49   A(4,26,31)            121.9991         calculate D2E/DX2 analytically  !
 ! A50   A(11,26,31)           109.5107         calculate D2E/DX2 analytically  !
 ! A51   A(11,27,12)           109.0681         calculate D2E/DX2 analytically  !
 ! A52   A(11,27,18)           122.9433         calculate D2E/DX2 analytically  !
 ! A53   A(12,27,18)           127.9886         calculate D2E/DX2 analytically  !
 ! A54   A(14,28,15)           109.0681         calculate D2E/DX2 analytically  !
 ! A55   A(14,28,22)           122.9433         calculate D2E/DX2 analytically  !
 ! A56   A(15,28,22)           127.9886         calculate D2E/DX2 analytically  !
 ! A57   A(3,29,14)            128.4902         calculate D2E/DX2 analytically  !
 ! A58   A(3,29,30)            121.9991         calculate D2E/DX2 analytically  !
 ! A59   A(14,29,30)           109.5107         calculate D2E/DX2 analytically  !
 ! A60   A(15,30,29)           102.853          calculate D2E/DX2 analytically  !
 ! A61   A(15,30,32)           125.0597         calculate D2E/DX2 analytically  !
 ! A62   A(29,30,32)           132.0872         calculate D2E/DX2 analytically  !
 ! A63   A(12,31,26)           102.853          calculate D2E/DX2 analytically  !
 ! A64   A(12,31,33)           125.0615         calculate D2E/DX2 analytically  !
 ! A65   A(26,31,33)           132.0853         calculate D2E/DX2 analytically  !
 ! A66   L(2,1,17,11,-1)       180.0            calculate D2E/DX2 analytically  !
 ! A67   L(2,1,17,11,-2)       180.0            calculate D2E/DX2 analytically  !
 ! D1    D(11,1,2,3)           177.8093         calculate D2E/DX2 analytically  !
 ! D2    D(11,1,2,4)            -2.196          calculate D2E/DX2 analytically  !
 ! D3    D(14,1,2,3)            -1.0042         calculate D2E/DX2 analytically  !
 ! D4    D(14,1,2,4)           178.9905         calculate D2E/DX2 analytically  !
 ! D5    D(2,1,11,26)            3.7721         calculate D2E/DX2 analytically  !
 ! D6    D(2,1,11,27)          174.5841         calculate D2E/DX2 analytically  !
 ! D7    D(14,1,11,26)           8.2077         calculate D2E/DX2 analytically  !
 ! D8    D(14,1,11,27)         179.0197         calculate D2E/DX2 analytically  !
 ! D9    D(17,1,11,26)        -176.2279         calculate D2E/DX2 analytically  !
 ! D10   D(17,1,11,27)          -5.4159         calculate D2E/DX2 analytically  !
 ! D11   D(2,1,14,28)          177.2517         calculate D2E/DX2 analytically  !
 ! D12   D(2,1,14,29)            1.795          calculate D2E/DX2 analytically  !
 ! D13   D(11,1,14,28)         172.8131         calculate D2E/DX2 analytically  !
 ! D14   D(11,1,14,29)          -2.6436         calculate D2E/DX2 analytically  !
 ! D15   D(17,1,14,28)          -2.7483         calculate D2E/DX2 analytically  !
 ! D16   D(17,1,14,29)        -178.205          calculate D2E/DX2 analytically  !
 ! D17   D(1,2,3,5)           -179.9729         calculate D2E/DX2 analytically  !
 ! D18   D(1,2,3,29)            -0.052          calculate D2E/DX2 analytically  !
 ! D19   D(4,2,3,5)              0.0323         calculate D2E/DX2 analytically  !
 ! D20   D(4,2,3,29)           179.9532         calculate D2E/DX2 analytically  !
 ! D21   D(1,2,4,6)           -179.9798         calculate D2E/DX2 analytically  !
 ! D22   D(1,2,4,26)            -0.0056         calculate D2E/DX2 analytically  !
 ! D23   D(3,2,4,6)              0.0149         calculate D2E/DX2 analytically  !
 ! D24   D(3,2,4,26)           179.9892         calculate D2E/DX2 analytically  !
 ! D25   D(2,3,5,7)             -0.0568         calculate D2E/DX2 analytically  !
 ! D26   D(2,3,5,8)            179.9619         calculate D2E/DX2 analytically  !
 ! D27   D(29,3,5,7)          -179.9424         calculate D2E/DX2 analytically  !
 ! D28   D(29,3,5,8)             0.0763         calculate D2E/DX2 analytically  !
 ! D29   D(2,3,29,14)            2.0455         calculate D2E/DX2 analytically  !
 ! D30   D(2,3,29,30)         -177.9707         calculate D2E/DX2 analytically  !
 ! D31   D(5,3,29,14)         -178.056          calculate D2E/DX2 analytically  !
 ! D32   D(5,3,29,30)            1.9279         calculate D2E/DX2 analytically  !
 ! D33   D(2,4,6,7)             -0.0376         calculate D2E/DX2 analytically  !
 ! D34   D(2,4,6,9)            179.975          calculate D2E/DX2 analytically  !
 ! D35   D(26,4,6,7)          -179.9992         calculate D2E/DX2 analytically  !
 ! D36   D(26,4,6,9)             0.0135         calculate D2E/DX2 analytically  !
 ! D37   D(2,4,26,11)            4.0909         calculate D2E/DX2 analytically  !
 ! D38   D(2,4,26,31)         -175.9253         calculate D2E/DX2 analytically  !
 ! D39   D(6,4,26,11)         -175.943          calculate D2E/DX2 analytically  !
 ! D40   D(6,4,26,31)            4.0408         calculate D2E/DX2 analytically  !
 ! D41   D(3,5,7,6)              0.0341         calculate D2E/DX2 analytically  !
 ! D42   D(3,5,7,10)          -179.9964         calculate D2E/DX2 analytically  !
 ! D43   D(8,5,7,6)           -179.9846         calculate D2E/DX2 analytically  !
 ! D44   D(8,5,7,10)            -0.0151         calculate D2E/DX2 analytically  !
 ! D45   D(4,6,7,5)              0.0131         calculate D2E/DX2 analytically  !
 ! D46   D(4,6,7,10)          -179.9563         calculate D2E/DX2 analytically  !
 ! D47   D(9,6,7,5)           -179.9995         calculate D2E/DX2 analytically  !
 ! D48   D(9,6,7,10)             0.0311         calculate D2E/DX2 analytically  !
 ! D49   D(1,11,26,4)           -5.8697         calculate D2E/DX2 analytically  !
 ! D50   D(1,11,26,31)         174.1448         calculate D2E/DX2 analytically  !
 ! D51   D(27,11,26,4)        -179.9949         calculate D2E/DX2 analytically  !
 ! D52   D(27,11,26,31)          0.0197         calculate D2E/DX2 analytically  !
 ! D53   D(1,11,27,12)        -170.7444         calculate D2E/DX2 analytically  !
 ! D54   D(1,11,27,18)           9.2508         calculate D2E/DX2 analytically  !
 ! D55   D(26,11,27,12)         -0.0017         calculate D2E/DX2 analytically  !
 ! D56   D(26,11,27,18)        179.9936         calculate D2E/DX2 analytically  !
 ! D57   D(13,12,27,11)        180.0            calculate D2E/DX2 analytically  !
 ! D58   D(13,12,27,18)          0.005          calculate D2E/DX2 analytically  !
 ! D59   D(31,12,27,11)         -0.017          calculate D2E/DX2 analytically  !
 ! D60   D(31,12,27,18)        179.988          calculate D2E/DX2 analytically  !
 ! D61   D(13,12,31,26)       -179.9884         calculate D2E/DX2 analytically  !
 ! D62   D(13,12,31,33)          0.1764         calculate D2E/DX2 analytically  !
 ! D63   D(27,12,31,26)          0.0273         calculate D2E/DX2 analytically  !
 ! D64   D(27,12,31,33)       -179.8079         calculate D2E/DX2 analytically  !
 ! D65   D(1,14,28,15)        -175.4004         calculate D2E/DX2 analytically  !
 ! D66   D(1,14,28,22)           4.5948         calculate D2E/DX2 analytically  !
 ! D67   D(29,14,28,15)         -0.0017         calculate D2E/DX2 analytically  !
 ! D68   D(29,14,28,22)        179.9936         calculate D2E/DX2 analytically  !
 ! D69   D(1,14,29,3)           -2.8181         calculate D2E/DX2 analytically  !
 ! D70   D(1,14,29,30)         177.1964         calculate D2E/DX2 analytically  !
 ! D71   D(28,14,29,3)        -179.9949         calculate D2E/DX2 analytically  !
 ! D72   D(28,14,29,30)          0.0197         calculate D2E/DX2 analytically  !
 ! D73   D(16,15,28,14)        180.0            calculate D2E/DX2 analytically  !
 ! D74   D(16,15,28,22)          0.005          calculate D2E/DX2 analytically  !
 ! D75   D(30,15,28,14)         -0.017          calculate D2E/DX2 analytically  !
 ! D76   D(30,15,28,22)        179.988          calculate D2E/DX2 analytically  !
 ! D77   D(16,15,30,29)       -179.9884         calculate D2E/DX2 analytically  !
 ! D78   D(16,15,30,32)          0.0983         calculate D2E/DX2 analytically  !
 ! D79   D(28,15,30,29)          0.0273         calculate D2E/DX2 analytically  !
 ! D80   D(28,15,30,32)       -179.886          calculate D2E/DX2 analytically  !
 ! D81   D(19,18,27,11)        -64.2611         calculate D2E/DX2 analytically  !
 ! D82   D(19,18,27,12)        115.7332         calculate D2E/DX2 analytically  !
 ! D83   D(20,18,27,11)         55.7389         calculate D2E/DX2 analytically  !
 ! D84   D(20,18,27,12)       -124.2668         calculate D2E/DX2 analytically  !
 ! D85   D(21,18,27,11)        175.7389         calculate D2E/DX2 analytically  !
 ! D86   D(21,18,27,12)         -4.2668         calculate D2E/DX2 analytically  !
 ! D87   D(23,22,28,14)        -62.0654         calculate D2E/DX2 analytically  !
 ! D88   D(23,22,28,15)        117.9289         calculate D2E/DX2 analytically  !
 ! D89   D(24,22,28,14)         57.9346         calculate D2E/DX2 analytically  !
 ! D90   D(24,22,28,15)       -122.0711         calculate D2E/DX2 analytically  !
 ! D91   D(25,22,28,14)        177.9346         calculate D2E/DX2 analytically  !
 ! D92   D(25,22,28,15)         -2.0711         calculate D2E/DX2 analytically  !
 ! D93   D(4,26,31,12)         179.9851         calculate D2E/DX2 analytically  !
 ! D94   D(4,26,31,33)          -0.1967         calculate D2E/DX2 analytically  !
 ! D95   D(11,26,31,12)         -0.0284         calculate D2E/DX2 analytically  !
 ! D96   D(11,26,31,33)        179.7899         calculate D2E/DX2 analytically  !
 ! D97   D(3,29,30,15)         179.9851         calculate D2E/DX2 analytically  !
 ! D98   D(3,29,30,32)          -0.1105         calculate D2E/DX2 analytically  !
 ! D99   D(14,29,30,15)         -0.0284         calculate D2E/DX2 analytically  !
 ! D100  D(14,29,30,32)        179.876          calculate D2E/DX2 analytically  !
 --------------------------------------------------------------------------------
 Trust Radius=3.00D-01 FncErr=1.00D-07 GrdErr=1.00D-06 EigMax=2.50D+02 EigMin=1.00D-04
 Number of steps in this run=    198 maximum allowed number of steps=    198.
 GradGradGradGradGradGradGradGradGradGradGradGradGradGradGradGradGradGrad

 Leave Link  103 at Sun Feb  8 03:41:06 2026, MaxMem= 16106127360 cpu:               0.5 elap:               0.0
 (Enter /home/software/g16-shuai/g16/l202.exe)
                          Input orientation:                          
 ---------------------------------------------------------------------
 Center     Atomic      Atomic             Coordinates (Angstroms)
 Number     Number       Type             X           Y           Z
 ---------------------------------------------------------------------
      1         78           0        0.518946   -0.288303    0.000000
      2          6           0        0.518946    1.771697    0.000000
      3          6           0       -0.689181    2.469218   -0.019112
      4          6           0        1.726698    2.469202    0.019217
      5          6           0       -0.689450    3.863930   -0.019687
      6          6           0        1.726586    3.864340    0.019641
      7          6           0        0.518796    4.561762    0.000055
      8          1           0       -1.641658    4.413793   -0.035385
      9          1           0        2.678993    4.414025    0.035211
     10          1           0        0.518333    5.661442   -0.000343
     11          6           0        2.492888   -0.027602   -0.044256
     12          6           0        4.787225    0.141800    0.124422
     13          1           0        5.855686   -0.050595    0.190263
     14          6           0       -1.515271   -0.009123    0.003476
     15          6           0       -3.808301    0.219936   -0.099822
     16          1           0       -4.882565    0.055169   -0.141880
     17         17           0        0.518946   -2.568303    0.000000
     18          6           0        3.865278   -2.290189   -0.054017
     19          1           0        3.387391   -2.713533    0.804647
     20          1           0        3.379698   -2.639798   -0.941082
     21          1           0        4.893928   -2.584284   -0.070972
     22          6           0       -2.942744   -2.237370   -0.005721
     23          1           0       -2.464441   -2.652879   -0.867972
     24          1           0       -2.476195   -2.617653    0.878936
     25          1           0       -3.978073   -2.507540   -0.007239
     26          7           0        2.737201    1.307213    0.035443
     27          7           0        3.771464   -0.754436    0.011263
     28          7           0       -2.812525   -0.703180   -0.035781
     29          7           0       -1.728328    1.332796   -0.036917
     30          6           0       -3.210992    1.605892   -0.106159
     31          6           0        4.223668    1.541599    0.150104
     32          1           0       -3.720839    2.434502   -0.145573
     33          1           0        4.752232    2.356133    0.222542
 ---------------------------------------------------------------------
                    Distance matrix (angstroms):
                    1          2          3          4          5
     1  Pt   0.000000
     2  C    2.060000   0.000000
     3  C    3.010624   1.395160   0.000000
     4  C    3.010460   1.394829   2.416183   0.000000
     5  C    4.324540   2.416205   1.394712   2.790080   0.000000
     6  C    4.324723   2.416183   2.789946   1.395138   2.416356
     7  C    4.850065   2.790065   2.416260   2.416236   1.395427
     8  H    5.174859   3.413229   2.165375   3.889760   1.099680
     9  H    5.174837   3.413055   3.889707   2.165516   3.413506
    10  H    5.949745   3.889745   3.413024   3.413344   2.165678
    11  C    1.991576   2.671308   4.044788   2.612491   5.027117
    12  C    4.291698   4.570586   5.952184   3.846388   6.623367
    13  H    5.345419   5.642494   7.016308   4.840163   7.629311
    14  C    2.053288   2.703584   2.612491   4.080772   3.960184
    15  C    4.358135   4.598151   3.846388   5.975750   4.797119
    16  H    5.414279   5.669472   4.840163   7.038172   5.666023
    17  Cl   2.280000   4.340000   5.180401   5.180299   6.544787
    18  C    3.899795   5.263057   6.587585   5.218304   7.656364
    19  H    3.841507   5.384489   6.645144   5.498686   7.782235
    20  H    3.820872   5.341425   6.596048   5.454949   7.726927
    21  H    4.941360   6.174146   7.530716   5.964664   8.529725
    22  C    3.972680   5.296786   5.218304   6.629942   6.504106
    23  H    3.904509   5.406555   5.487075   6.677459   6.807274
    24  H    3.894774   5.386073   5.465909   6.654286   6.783133
    25  H    5.014802   6.207664   5.965323   7.570540   7.170135
    26  N    2.732688   2.266640   3.618470   1.540000   4.275720
    27  N    3.285769   4.118294   5.503655   3.817457   6.421060
    28  N    3.357395   4.150300   3.817457   5.538192   5.036487
    29  N    2.771203   2.290030   1.540000   3.637551   2.736093
    30  C    4.184696   3.735130   2.666916   5.014161   3.385911
    31  C    4.134736   3.714895   5.002519   2.666916   5.436983
    32  H    5.040896   4.293749   3.034493   5.450139   3.353868
    33  H    4.996326   4.279229   5.447950   3.034466   5.651904
                    6          7          8          9         10
     6  C    0.000000
     7  C    1.394825   0.000000
     8  H    3.413209   2.165806   0.000000
     9  H    1.099761   2.165528   4.321228   0.000000
    10  H    2.165606   1.099680   2.494678   2.495147   0.000000
    11  C    3.967180   4.996125   6.067994   4.446235   6.022127
    12  C    4.820352   6.145813   7.720492   4.764925   6.978929
    13  H    5.692565   7.056373   8.728794   5.481629   7.819912
    14  C    5.051101   5.003042   4.424892   6.095662   6.024190
    15  C    6.628042   6.130677   4.720904   7.726164   6.952672
    16  H    7.629991   7.035924   5.432534   8.729728   7.785887
    17  Cl   6.545050   7.130065   7.308839   7.308896   8.229745
    18  C    6.515954   7.625686   8.675832   6.808944   8.627476
    19  H    6.829563   7.861687   8.763320   7.203884   8.889303
    20  H    6.779349   7.805956   8.705599   7.155456   8.830797
    21  H    7.185056   8.379308   9.575398   7.341223   9.335032
    22  C    7.683369   7.629579   6.777291   8.708999   8.623822
    23  H    7.799148   7.855203   7.162962   8.787023   8.875677
    24  H    7.772901   7.828563   7.139584   8.759699   8.847810
    25  H    8.552469   8.378360   7.305100   9.603457   9.324697
    26  N    2.749635   3.938865   5.369382   3.107358   4.887122
    27  N    5.051207   6.232329   7.484294   5.282713   7.193502
    28  N    6.439631   6.230457   5.249223   7.506504   7.183612
    29  N    4.283497   3.934102   3.082216   5.378072   4.877089
    30  C    5.431031   4.760228   3.217472   6.526678   5.510585
    31  C    3.412853   4.782256   6.533449   3.263443   5.543036
    32  H    5.634375   4.745624   2.872756   6.701421   5.329617
    33  H    3.386796   4.778732   6.721779   2.927172   5.375932
                   11         12         13         14         15
    11  C    0.000000
    12  C    2.306757   0.000000
    13  H    3.371043   1.087640   0.000000
    14  C    4.008486   6.305462   7.373439   0.000000
    15  C    6.306295   8.598806   9.672124   2.306757   0.000000
    16  H    7.376564   9.673844  10.743907   3.371043   1.087640
    17  Cl   3.217696   5.057504   5.903884   3.269167   5.148719
    18  C    2.646289   2.606989   3.006190   5.844388   8.073825
    19  H    2.955503   3.251948   3.682552   5.656130   7.823126
    20  H    2.900740   3.294498   3.756918   5.636786   7.781589
    21  H    3.507467   2.735160   2.722647   6.907592   9.142936
    22  C    5.867764   8.088869   9.068228   2.646289   2.606989
    23  H    5.669718   7.834649   8.781586   2.941053   3.263293
    24  H    5.679123   7.806480   8.745530   2.914487   3.283958
    25  H    6.929993   9.157880  10.137968   3.508219   2.734322
    26  N    1.359328   2.359810   3.404785   4.451660   6.636570
    27  N    1.471776   1.359343   2.207128   5.339018   7.642943
    28  N    5.348261   7.648258   8.695680   1.471776   1.359343
    29  N    4.435021   6.625476   7.712500   1.359328   2.359810
    30  C    5.933498   8.134385   9.221522   2.344305   1.509203
    31  C    2.344305   1.509203   2.280389   5.946567   8.143819
    32  H    6.684507   8.815698   9.899410   3.295156   2.216765
    33  H    3.295149   2.216782   2.647827   6.702538   8.828929
                   16         17         18         19         20
    16  H    0.000000
    17  Cl   6.006584   0.000000
    18  C    9.057217   3.358304   0.000000
    19  H    8.772332   2.982705   1.070000   0.000000
    20  H    8.727345   3.012416   1.070000   1.747303   0.000000
    21  H   10.126774   4.375587   1.070000   1.747303   1.747303
    22  C    3.006190   3.477477   6.808398   6.399534   6.403914
    23  H    3.702439   3.108235   6.392136   6.086483   5.844610
    24  H    3.738537   3.121832   6.418093   5.864841   6.132246
    25  H    2.720977   4.497435   7.846501   7.412938   7.417974
    26  N    7.723982   4.465595   3.771188   4.144975   4.116466
    27  N    8.693166   3.724126   1.540000   2.148263   2.148263
    28  N    2.207128   3.818202   6.863817   6.571667   6.550854
    29  N    3.404785   4.502241   6.664439   6.576594   6.533831
    30  C    2.280389   5.598894   8.078104   7.938871   7.884173
    31  C    9.231371   5.535232   3.853921   4.385651   4.403073
    32  H    2.647801   6.559346   8.937576   8.827917   8.763503
    33  H    9.912444   6.497715   4.738299   5.282343   5.310103
                   21         22         23         24         25
    21  H    0.000000
    22  C    7.844618   0.000000
    23  H    7.401723   1.070000   0.000000
    24  H    7.431161   1.070000   1.747303   0.000000
    25  H    8.872561   1.070000   1.747303   1.747303   0.000000
    26  N    4.450455   6.695337   6.599664   6.579935   7.723281
    27  N    2.148263   6.876043   6.577511   6.577057   7.945378
    28  N    7.932793   1.540000   2.148263   2.148263   2.148263
    29  N    7.694086   3.771188   4.137405   4.123607   4.450889
    30  C    9.124064   3.853921   4.390311   4.398712   4.185514
    31  C    4.185814   8.103231   7.959957   7.919516   9.148160
    32  H    9.970356   4.738288   5.289786   5.303115   4.950666
    33  H    4.951156   8.964654   8.852106   8.798838   9.996316
                   26         27         28         29         30
    26  N    0.000000
    27  N    2.306660   0.000000
    28  N    5.903068   6.584357   0.000000
    29  N    4.466189   5.882735   2.306660   0.000000
    30  C    5.957371   7.371542   2.344257   1.509195   0.000000
    31  C    1.509195   2.344257   7.387936   5.958594   7.439354
    32  H    6.558188   8.144233   3.268353   2.279400   0.973700
    33  H    2.279383   3.268360   8.164047   6.565988   8.005238
                   31         32         33
    31  C    0.000000
    32  H    7.999994   0.000000
    33  H    0.973700   8.481425   0.000000
 Symmetry turned off by external request.
 Stoichiometry    C14H13ClN4Pt
 Framework group  C1[X(C14H13ClN4Pt)]
 Deg. of freedom    93
 Full point group                 C1      NOp   1
 Rotational constants (GHZ):           0.3617910           0.2739351           0.1562448
 Leave Link  202 at Sun Feb  8 03:41:06 2026, MaxMem= 16106127360 cpu:               1.4 elap:               0.0
 (Enter /home/software/g16-shuai/g16/l301.exe)
 Standard basis: def2SVP (5D, 7F)
 Ernie: Thresh=  0.10000D-02 Tol=  0.10000D-05 Strict=F.
   367 basis functions,   643 primitive gaussians,   391 cartesian basis functions
    80 alpha electrons       80 beta electrons
       nuclear repulsion energy      1827.6864278410 Hartrees.
 IExCor= 2523 DFT=T Ex+Corr=TPSSh ExCW=0 ScaHFX=  0.100000
 ScaDFX=  0.900000  0.900000  1.000000  1.000000 ScalE2=  1.000000  1.000000
 IRadAn=      5 IRanWt=     -1 IRanGd=            0 ICorTp=0 IEmpDi=141
 NAtoms=   33 NActive=   33 NUniq=   33 SFac= 1.00D+00 NAtFMM=   60 NAOKFM=F Big=F
 Integral buffers will be    131072 words long.
 Raffenetti 2 integral format.
 Two-electron integral symmetry is turned off.
 R6DIni: Non-standard D2/D3 S6 parameter, value=     1.000000
 R6DIni: Non-standard D2/D3 S8 parameter, value=     2.238200
 R6DIni: Non-standard D3BJ A1 parameter, value=     0.452900
 R6DIni: Non-standard D3BJ A2 parameter, value=     4.655000
 R6Disp:  Grimme-D3(BJ) Dispersion energy=       -0.0609185705 Hartrees.
 Nuclear repulsion after empirical dispersion term =     1827.6255092705 Hartrees.
 Force inversion solution in PCM.
 ------------------------------------------------------------------------------
 Polarizable Continuum Model (PCM)
 =================================
 Model                : PCM.
 Atomic radii         : UFF (Universal Force Field).
 Polarization charges : Total charges.
 Charge compensation  : None.
 Solution method      : Matrix inversion.
 Cavity type          : Scaled VdW (van der Waals Surface) (Alpha=1.100).
 Cavity algorithm     : GePol (No added spheres)
                        Default sphere list used, NSphG=   33.
                        Lebedev-Laikov grids with approx.  5.0 points / Ang**2.
                        Smoothing algorithm: York/Karplus (Gamma=1.0000).
                        Polarization charges: spherical gaussians, with
                                              point-specific exponents (IZeta= 3).
                        Self-potential: point-specific (ISelfS= 7).
                        Self-field    : sphere-specific E.n sum rule (ISelfD= 2).
 1st derivatives      : Analytical E(r).r(x)/FMM algorithm (CHGder, D1EAlg=3).
                        Cavity 1st derivative terms included.
 2nd derivatives      : Analytical E(r).r(xy)/FMM algorithm (CHGder, D2EAlg=3).
                        Cavity 2nd derivative terms included.
 Solvent              : Dichloromethane, Eps=   8.930000 Eps(inf)=   2.028346
 ------------------------------------------------------------------------------
 GePol: Number of generator spheres                  =      33
 GePol: Total number of spheres                      =      33
 GePol: Number of exposed spheres                    =      33 (100.00%)
 GePol: Number of points                             =    2612
 GePol: Average weight of points                     =       0.13
 GePol: Minimum weight of points                     =   0.52D-11
 GePol: Maximum weight of points                     =    0.21838
 GePol: Number of points with low weight             =     154
 GePol: Fraction of low-weight points (<1% of avg)   =       5.90%
 GePol: Cavity surface area                          =    350.025 Ang**2
 GePol: Cavity volume                                =    386.086 Ang**3
 Leave Link  301 at Sun Feb  8 03:41:06 2026, MaxMem= 16106127360 cpu:               2.5 elap:               0.1
 (Enter /home/software/g16-shuai/g16/l302.exe)
 NPDir=0 NMtPBC=     1 NCelOv=     1 NCel=       1 NClECP=     1 NCelD=      1
         NCelK=      1 NCelE2=     1 NClLst=     1 CellRange=     0.0.
 One-electron integrals computed using PRISM.
   1 Symmetry operations used in ECPInt.
 ECPInt:  NShTT=   14028 NPrTT=   51030 LenC2=   12644 LenP2D=   32091.
 LDataN:  DoStor=T MaxTD1= 8 Len=  415
 NBasis=   367 RedAO= T EigKep=  2.18D-04  NBF=   367
 NBsUse=   367 1.00D-06 EigRej= -1.00D+00 NBFU=   367
 Precomputing XC quadrature grid using
 IXCGrd= 4 IRadAn=           5 IRanWt=          -1 IRanGd=           0 AccXCQ= 0.00D+00.
 Defaulting to unpruned grid for atomic number  78.
 Generated NRdTot=       0 NPtTot=           0 NUsed=           0 NTot=          32
 NSgBfM=   388   388   388   388   388 MxSgAt=    33 MxSgA2=    33.
 Leave Link  302 at Sun Feb  8 03:41:06 2026, MaxMem= 16106127360 cpu:              20.1 elap:               0.4
 (Enter /home/software/g16-shuai/g16/l303.exe)
 DipDrv:  MaxL=1.
 Leave Link  303 at Sun Feb  8 03:41:07 2026, MaxMem= 16106127360 cpu:               1.9 elap:               0.1
 (Enter /home/software/g16-shuai/g16/l401.exe)
 ExpMin= 4.90D-02 ExpMax= 1.04D+04 ExpMxC= 1.57D+03 IAcc=3 IRadAn=         5 AccDes= 0.00D+00
 Harris functional with IExCor= 1009 and IRadAn=       5 diagonalized for initial guess.
 HarFok:  IExCor= 1009 AccDes= 0.00D+00 IRadAn=         5 IDoV= 1 UseB2=F ITyADJ=14
 ICtDFT=  3500011 ScaDFX=  1.000000  1.000000  1.000000  1.000000
 Defaulting to unpruned grid for atomic number  78.
 FoFCou: FMM=F IPFlag=           0 FMFlag=      100000 FMFlg1=           0
         NFxFlg=           0 DoJE=T BraDBF=F KetDBF=T FulRan=T
         wScrn=  0.000000 ICntrl=       500 IOpCl=  0 I1Cent=   200000004 NGrid=           0
         NMat0=    1 NMatS0=      1 NMatT0=    0 NMatD0=    1 NMtDS0=    0 NMtDT0=    0
 Symmetry not used in FoFCou.
 Harris En= -1338.06953870302    
 JPrj=0 DoOrth=F DoCkMO=F.
 Leave Link  401 at Sun Feb  8 03:41:07 2026, MaxMem= 16106127360 cpu:              35.7 elap:               0.7
 (Enter /home/software/g16-shuai/g16/l502.exe)
 Two-electron integral symmetry not used.
 Closed shell SCF:
 Using DIIS extrapolation, IDIIS=  1040.
 NGot= 16106127360 LenX= 16105795799 LenY= 16105642477
 Requested convergence on RMS density matrix=1.00D-08 within 128 cycles.
 Requested convergence on MAX density matrix=1.00D-06.
 Requested convergence on             energy=1.00D-06.
 No special actions if energy rises.
 Fock matrices will be formed incrementally for  20 cycles.

 Cycle   1  Pass 1  IDiag  1:
 FoFJK:  IHMeth= 1 ICntrl=       0 DoSepK=F KAlg= 0 I1Cent=           0 FoldK=F
 IRaf= 840000000 NMat=       1 IRICut=       1 DoRegI=T DoRafI=F ISym2E= 0 IDoP0=0 IntGTp=1.
 FoFCou: FMM=F IPFlag=           0 FMFlag=      100000 FMFlg1=           0
         NFxFlg=           0 DoJE=F BraDBF=F KetDBF=F FulRan=T
         wScrn=  0.000000 ICntrl=         0 IOpCl=  0 I1Cent=           0 NGrid=           0
         NMat0=    1 NMatS0=      1 NMatT0=    0 NMatD0=    1 NMtDS0=    0 NMtDT0=    0
 Symmetry not used in FoFCou.
 Defaulting to unpruned grid for atomic number  78.
 Defaulting to unpruned grid for atomic number  78.
 Defaulting to unpruned grid for atomic number  78.
 Defaulting to unpruned grid for atomic number  78.
 Defaulting to unpruned grid for atomic number  78.
 Defaulting to unpruned grid for atomic number  78.
 Defaulting to unpruned grid for atomic number  78.
 Defaulting to unpruned grid for atomic number  78.
 Defaulting to unpruned grid for atomic number  78.
 Defaulting to unpruned grid for atomic number  78.
 Defaulting to unpruned grid for atomic number  78.
 Defaulting to unpruned grid for atomic number  78.
 Defaulting to unpruned grid for atomic number  78.
 Defaulting to unpruned grid for atomic number  78.
 Defaulting to unpruned grid for atomic number  78.
 Defaulting to unpruned grid for atomic number  78.
 Defaulting to unpruned grid for atomic number  78.
 Defaulting to unpruned grid for atomic number  78.
 Defaulting to unpruned grid for atomic number  78.
 Defaulting to unpruned grid for atomic number  78.
 Defaulting to unpruned grid for atomic number  78.
 Defaulting to unpruned grid for atomic number  78.
 Defaulting to unpruned grid for atomic number  78.
 Defaulting to unpruned grid for atomic number  78.
 Defaulting to unpruned grid for atomic number  78.
 Defaulting to unpruned grid for atomic number  78.
 Defaulting to unpruned grid for atomic number  78.
 Defaulting to unpruned grid for atomic number  78.
 Defaulting to unpruned grid for atomic number  78.
 Defaulting to unpruned grid for atomic number  78.
 Defaulting to unpruned grid for atomic number  78.
 Defaulting to unpruned grid for atomic number  78.
 Defaulting to unpruned grid for atomic number  78.
 Defaulting to unpruned grid for atomic number  78.
 Defaulting to unpruned grid for atomic number  78.
 Defaulting to unpruned grid for atomic number  78.
 Defaulting to unpruned grid for atomic number  78.
 Defaulting to unpruned grid for atomic number  78.
 Defaulting to unpruned grid for atomic number  78.
 Defaulting to unpruned grid for atomic number  78.
 Defaulting to unpruned grid for atomic number  78.
 Defaulting to unpruned grid for atomic number  78.
 Defaulting to unpruned grid for atomic number  78.
 Defaulting to unpruned grid for atomic number  78.
 Defaulting to unpruned grid for atomic number  78.
 Defaulting to unpruned grid for atomic number  78.
 Defaulting to unpruned grid for atomic number  78.
 Defaulting to unpruned grid for atomic number  78.
 Defaulting to unpruned grid for atomic number  78.
 Defaulting to unpruned grid for atomic number  78.
 Defaulting to unpruned grid for atomic number  78.
 Defaulting to unpruned grid for atomic number  78.
 Defaulting to unpruned grid for atomic number  78.
 Defaulting to unpruned grid for atomic number  78.
 Defaulting to unpruned grid for atomic number  78.
 Defaulting to unpruned grid for atomic number  78.
 Inv3:  Mode=1 IEnd=    20467632.
 Iteration    1 A*A^-1 deviation from unit magnitude is 4.88D-15 for   2610.
 Iteration    1 A*A^-1 deviation from orthogonality  is 1.83D-15 for   1805   1130.
 Iteration    1 A^-1*A deviation from unit magnitude is 4.88D-15 for   2610.
 Iteration    1 A^-1*A deviation from orthogonality  is 1.46D-15 for   2363    999.
 E= -1338.19233465179    
 DIIS: error= 7.07D-02 at cycle   1 NSaved=   1.
 NSaved= 1 IEnMin= 1 EnMin= -1338.19233465179     IErMin= 1 ErrMin= 7.07D-02
 ErrMax= 7.07D-02  0.00D+00 EMaxC= 1.00D-01 BMatC= 1.17D+00 BMatP= 1.17D+00
 IDIUse=3 WtCom= 2.93D-01 WtEn= 7.07D-01
 Coeff-Com:  0.100D+01
 Coeff-En:   0.100D+01
 Coeff:      0.100D+01
 Gap=     0.600 Goal=   None    Shift=    0.000
 GapD=    0.600 DampG=2.000 DampE=0.250 DampFc=0.5000 IDamp=-1.
 Damping current iteration by 5.00D-01
 RMSDP=1.12D-02 MaxDP=9.61D-01              OVMax= 7.21D-01

 Cycle   2  Pass 1  IDiag  1:
 RMSU=  5.61D-03    CP:  1.00D+00
 E= -1338.04747694376     Delta-E=        0.144857708031 Rises=F Damp=T
 DIIS: error= 2.57D-02 at cycle   2 NSaved=   2.
 NSaved= 2 IEnMin= 1 EnMin= -1338.19233465179     IErMin= 2 ErrMin= 2.57D-02
 ErrMax= 2.57D-02  0.00D+00 EMaxC= 1.00D-01 BMatC= 3.25D-01 BMatP= 1.17D+00
 IDIUse=3 WtCom= 7.43D-01 WtEn= 2.57D-01
 Coeff-Com:  0.312D+00 0.688D+00
 Coeff-En:   0.540D+00 0.460D+00
 Coeff:      0.370D+00 0.630D+00
 Gap=     0.127 Goal=   None    Shift=    0.000
 RMSDP=4.97D-03 MaxDP=4.63D-01 DE= 1.45D-01 OVMax= 5.26D-01

 Cycle   3  Pass 1  IDiag  1:
 RMSU=  3.27D-03    CP:  9.78D-01  3.39D-01
 E= -1339.02464304000     Delta-E=       -0.977166096235 Rises=F Damp=F
 DIIS: error= 2.38D-02 at cycle   3 NSaved=   3.
 NSaved= 3 IEnMin= 3 EnMin= -1339.02464304000     IErMin= 3 ErrMin= 2.38D-02
 ErrMax= 2.38D-02  0.00D+00 EMaxC= 1.00D-01 BMatC= 2.03D-01 BMatP= 3.25D-01
 IDIUse=3 WtCom= 7.62D-01 WtEn= 2.38D-01
 Coeff-Com:  0.206D+00 0.391D+00 0.403D+00
 Coeff-En:   0.106D+00 0.000D+00 0.894D+00
 Coeff:      0.182D+00 0.298D+00 0.520D+00
 Gap=     0.170 Goal=   None    Shift=    0.000
 RMSDP=2.24D-03 MaxDP=1.51D-01 DE=-9.77D-01 OVMax= 1.88D-01

 Cycle   4  Pass 1  IDiag  1:
 RMSU=  1.90D-03    CP:  9.76D-01  2.71D-01  6.58D-01
 E= -1339.16892395833     Delta-E=       -0.144280918329 Rises=F Damp=F
 DIIS: error= 1.49D-02 at cycle   4 NSaved=   4.
 NSaved= 4 IEnMin= 4 EnMin= -1339.16892395833     IErMin= 4 ErrMin= 1.49D-02
 ErrMax= 1.49D-02  0.00D+00 EMaxC= 1.00D-01 BMatC= 7.90D-02 BMatP= 2.03D-01
 IDIUse=3 WtCom= 8.51D-01 WtEn= 1.49D-01
 Coeff-Com:  0.268D-01 0.764D-01 0.362D+00 0.535D+00
 Coeff-En:   0.000D+00 0.000D+00 0.304D+00 0.696D+00
 Coeff:      0.228D-01 0.650D-01 0.353D+00 0.559D+00
 Gap=     0.146 Goal=   None    Shift=    0.000
 RMSDP=1.02D-03 MaxDP=6.50D-02 DE=-1.44D-01 OVMax= 9.21D-02

 Cycle   5  Pass 1  IDiag  1:
 RMSU=  5.33D-04    CP:  9.77D-01  3.06D-01  8.01D-01  6.28D-01
 E= -1339.24052021199     Delta-E=       -0.071596253667 Rises=F Damp=F
 DIIS: error= 4.04D-03 at cycle   5 NSaved=   5.
 NSaved= 5 IEnMin= 5 EnMin= -1339.24052021199     IErMin= 5 ErrMin= 4.04D-03
 ErrMax= 4.04D-03  0.00D+00 EMaxC= 1.00D-01 BMatC= 9.04D-03 BMatP= 7.90D-02
 IDIUse=3 WtCom= 9.60D-01 WtEn= 4.04D-02
 Coeff-Com: -0.211D-02 0.686D-02 0.176D+00 0.363D+00 0.456D+00
 Coeff-En:   0.000D+00 0.000D+00 0.000D+00 0.833D-01 0.917D+00
 Coeff:     -0.202D-02 0.658D-02 0.169D+00 0.351D+00 0.475D+00
 Gap=     0.138 Goal=   None    Shift=    0.000
 RMSDP=3.33D-04 MaxDP=1.74D-02 DE=-7.16D-02 OVMax= 2.89D-02

 Cycle   6  Pass 1  IDiag  1:
 RMSU=  1.67D-04    CP:  9.77D-01  2.97D-01  7.83D-01  6.94D-01  5.38D-01
 E= -1339.24858819351     Delta-E=       -0.008067981516 Rises=F Damp=F
 DIIS: error= 1.51D-03 at cycle   6 NSaved=   6.
 NSaved= 6 IEnMin= 6 EnMin= -1339.24858819351     IErMin= 6 ErrMin= 1.51D-03
 ErrMax= 1.51D-03  0.00D+00 EMaxC= 1.00D-01 BMatC= 8.50D-04 BMatP= 9.04D-03
 IDIUse=3 WtCom= 9.85D-01 WtEn= 1.51D-02
 Coeff-Com: -0.281D-02-0.361D-02 0.564D-01 0.138D+00 0.288D+00 0.525D+00
 Coeff-En:   0.000D+00 0.000D+00 0.000D+00 0.000D+00 0.630D-01 0.937D+00
 Coeff:     -0.277D-02-0.355D-02 0.555D-01 0.136D+00 0.284D+00 0.531D+00
 Gap=     0.139 Goal=   None    Shift=    0.000
 RMSDP=1.01D-04 MaxDP=5.88D-03 DE=-8.07D-03 OVMax= 7.44D-03

 Cycle   7  Pass 1  IDiag  1:
 RMSU=  5.59D-05    CP:  9.76D-01  2.97D-01  7.89D-01  6.88D-01  6.15D-01
                    CP:  5.84D-01
 E= -1339.24931969315     Delta-E=       -0.000731499644 Rises=F Damp=F
 DIIS: error= 3.27D-04 at cycle   7 NSaved=   7.
 NSaved= 7 IEnMin= 7 EnMin= -1339.24931969315     IErMin= 7 ErrMin= 3.27D-04
 ErrMax= 3.27D-04  0.00D+00 EMaxC= 1.00D-01 BMatC= 8.29D-05 BMatP= 8.50D-04
 IDIUse=3 WtCom= 9.97D-01 WtEn= 3.27D-03
 Coeff-Com: -0.883D-03-0.275D-02 0.131D-01 0.354D-01 0.105D+00 0.306D+00
 Coeff-Com:  0.544D+00
 Coeff-En:   0.000D+00 0.000D+00 0.000D+00 0.000D+00 0.000D+00 0.606D-01
 Coeff-En:   0.939D+00
 Coeff:     -0.880D-03-0.274D-02 0.130D-01 0.353D-01 0.104D+00 0.305D+00
 Coeff:      0.545D+00
 Gap=     0.139 Goal=   None    Shift=    0.000
 RMSDP=3.07D-05 MaxDP=1.56D-03 DE=-7.31D-04 OVMax= 3.54D-03

 Cycle   8  Pass 1  IDiag  1:
 RMSU=  2.06D-05    CP:  9.76D-01  2.97D-01  7.90D-01  6.88D-01  6.06D-01
                    CP:  6.47D-01  6.56D-01
 E= -1339.24938895291     Delta-E=       -0.000069259761 Rises=F Damp=F
 DIIS: error= 1.49D-04 at cycle   8 NSaved=   8.
 NSaved= 8 IEnMin= 8 EnMin= -1339.24938895291     IErMin= 8 ErrMin= 1.49D-04
 ErrMax= 1.49D-04  0.00D+00 EMaxC= 1.00D-01 BMatC= 1.44D-05 BMatP= 8.29D-05
 IDIUse=3 WtCom= 9.99D-01 WtEn= 1.49D-03
 Coeff-Com: -0.145D-03-0.128D-02 0.419D-02 0.108D-01 0.416D-01 0.151D+00
 Coeff-Com:  0.360D+00 0.434D+00
 Coeff-En:   0.000D+00 0.000D+00 0.000D+00 0.000D+00 0.000D+00 0.000D+00
 Coeff-En:   0.123D+00 0.877D+00
 Coeff:     -0.145D-03-0.128D-02 0.418D-02 0.108D-01 0.415D-01 0.150D+00
 Coeff:      0.360D+00 0.435D+00
 Gap=     0.139 Goal=   None    Shift=    0.000
 RMSDP=1.23D-05 MaxDP=7.68D-04 DE=-6.93D-05 OVMax= 1.71D-03

 Cycle   9  Pass 1  IDiag  1:
 RMSU=  8.34D-06    CP:  9.76D-01  2.97D-01  7.89D-01  6.88D-01  6.06D-01
                    CP:  6.45D-01  7.03D-01  5.84D-01
 E= -1339.24940255807     Delta-E=       -0.000013605156 Rises=F Damp=F
 DIIS: error= 5.83D-05 at cycle   9 NSaved=   9.
 NSaved= 9 IEnMin= 9 EnMin= -1339.24940255807     IErMin= 9 ErrMin= 5.83D-05
 ErrMax= 5.83D-05  0.00D+00 EMaxC= 1.00D-01 BMatC= 1.47D-06 BMatP= 1.44D-05
 IDIUse=1 WtCom= 1.00D+00 WtEn= 0.00D+00
 Coeff-Com:  0.125D-03-0.356D-03 0.493D-03 0.351D-03 0.703D-02 0.380D-01
 Coeff-Com:  0.128D+00 0.273D+00 0.554D+00
 Coeff:      0.125D-03-0.356D-03 0.493D-03 0.351D-03 0.703D-02 0.380D-01
 Coeff:      0.128D+00 0.273D+00 0.554D+00
 Gap=     0.139 Goal=   None    Shift=    0.000
 RMSDP=4.41D-06 MaxDP=1.91D-04 DE=-1.36D-05 OVMax= 5.05D-04

 Cycle  10  Pass 1  IDiag  1:
 RMSU=  2.97D-06    CP:  9.76D-01  2.97D-01  7.89D-01  6.87D-01  6.06D-01
                    CP:  6.51D-01  7.02D-01  6.30D-01  6.58D-01
 E= -1339.24940407638     Delta-E=       -0.000001518313 Rises=F Damp=F
 DIIS: error= 1.21D-05 at cycle  10 NSaved=  10.
 NSaved=10 IEnMin=10 EnMin= -1339.24940407638     IErMin=10 ErrMin= 1.21D-05
 ErrMax= 1.21D-05  0.00D+00 EMaxC= 1.00D-01 BMatC= 1.21D-07 BMatP= 1.47D-06
 IDIUse=1 WtCom= 1.00D+00 WtEn= 0.00D+00
 Coeff-Com:  0.937D-04-0.125D-03-0.787D-04-0.783D-03-0.140D-03 0.507D-02
 Coeff-Com:  0.326D-01 0.962D-01 0.293D+00 0.574D+00
 Coeff:      0.937D-04-0.125D-03-0.787D-04-0.783D-03-0.140D-03 0.507D-02
 Coeff:      0.326D-01 0.962D-01 0.293D+00 0.574D+00
 Gap=     0.139 Goal=   None    Shift=    0.000
 RMSDP=1.44D-06 MaxDP=6.35D-05 DE=-1.52D-06 OVMax= 1.29D-04

 Cycle  11  Pass 1  IDiag  1:
 RMSU=  7.18D-07    CP:  9.76D-01  2.97D-01  7.89D-01  6.87D-01  6.06D-01
                    CP:  6.50D-01  7.06D-01  6.49D-01  7.06D-01  6.78D-01
 E= -1339.24940420086     Delta-E=       -0.000000124475 Rises=F Damp=F
 DIIS: error= 3.43D-06 at cycle  11 NSaved=  11.
 NSaved=11 IEnMin=11 EnMin= -1339.24940420086     IErMin=11 ErrMin= 3.43D-06
 ErrMax= 3.43D-06  0.00D+00 EMaxC= 1.00D-01 BMatC= 1.15D-08 BMatP= 1.21D-07
 IDIUse=1 WtCom= 1.00D+00 WtEn= 0.00D+00
 Coeff-Com:  0.346D-04-0.191D-04-0.688D-04-0.418D-03-0.763D-03-0.126D-02
 Coeff-Com:  0.455D-02 0.225D-01 0.100D+00 0.302D+00 0.573D+00
 Coeff:      0.346D-04-0.191D-04-0.688D-04-0.418D-03-0.763D-03-0.126D-02
 Coeff:      0.455D-02 0.225D-01 0.100D+00 0.302D+00 0.573D+00
 Gap=     0.139 Goal=   None    Shift=    0.000
 RMSDP=3.77D-07 MaxDP=2.16D-05 DE=-1.24D-07 OVMax= 3.29D-05

 Cycle  12  Pass 1  IDiag  1:
 RMSU=  2.45D-07    CP:  9.76D-01  2.97D-01  7.89D-01  6.87D-01  6.06D-01
                    CP:  6.50D-01  7.08D-01  6.45D-01  7.13D-01  7.20D-01
                    CP:  7.15D-01
 E= -1339.24940421144     Delta-E=       -0.000000010577 Rises=F Damp=F
 DIIS: error= 1.59D-06 at cycle  12 NSaved=  12.
 NSaved=12 IEnMin=12 EnMin= -1339.24940421144     IErMin=12 ErrMin= 1.59D-06
 ErrMax= 1.59D-06  0.00D+00 EMaxC= 1.00D-01 BMatC= 1.46D-09 BMatP= 1.15D-08
 IDIUse=1 WtCom= 1.00D+00 WtEn= 0.00D+00
 Coeff-Com:  0.102D-04-0.207D-05-0.308D-04-0.150D-03-0.415D-03-0.123D-02
 Coeff-Com: -0.594D-03 0.335D-02 0.275D-01 0.118D+00 0.331D+00 0.523D+00
 Coeff:      0.102D-04-0.207D-05-0.308D-04-0.150D-03-0.415D-03-0.123D-02
 Coeff:     -0.594D-03 0.335D-02 0.275D-01 0.118D+00 0.331D+00 0.523D+00
 Gap=     0.139 Goal=   None    Shift=    0.000
 RMSDP=1.21D-07 MaxDP=6.22D-06 DE=-1.06D-08 OVMax= 9.33D-06

 Cycle  13  Pass 1  IDiag  1:
 RMSU=  7.69D-08    CP:  9.76D-01  2.97D-01  7.89D-01  6.87D-01  6.06D-01
                    CP:  6.50D-01  7.08D-01  6.46D-01  7.14D-01  7.28D-01
                    CP:  7.26D-01  6.54D-01
 E= -1339.24940421277     Delta-E=       -0.000000001333 Rises=F Damp=F
 DIIS: error= 3.65D-07 at cycle  13 NSaved=  13.
 NSaved=13 IEnMin=13 EnMin= -1339.24940421277     IErMin=13 ErrMin= 3.65D-07
 ErrMax= 3.65D-07  0.00D+00 EMaxC= 1.00D-01 BMatC= 1.18D-10 BMatP= 1.46D-09
 IDIUse=1 WtCom= 1.00D+00 WtEn= 0.00D+00
 Coeff-Com:  0.227D-05 0.351D-07-0.880D-05-0.365D-04-0.145D-03-0.546D-03
 Coeff-Com: -0.696D-03-0.181D-03 0.560D-02 0.367D-01 0.130D+00 0.281D+00
 Coeff-Com:  0.549D+00
 Coeff:      0.227D-05 0.351D-07-0.880D-05-0.365D-04-0.145D-03-0.546D-03
 Coeff:     -0.696D-03-0.181D-03 0.560D-02 0.367D-01 0.130D+00 0.281D+00
 Coeff:      0.549D+00
 Gap=     0.139 Goal=   None    Shift=    0.000
 RMSDP=3.93D-08 MaxDP=1.74D-06 DE=-1.33D-09 OVMax= 3.40D-06

 Cycle  14  Pass 1  IDiag  1:
 RMSU=  2.85D-08    CP:  9.76D-01  2.97D-01  7.89D-01  6.87D-01  6.06D-01
                    CP:  6.50D-01  7.08D-01  6.46D-01  7.15D-01  7.29D-01
                    CP:  7.34D-01  6.76D-01  6.79D-01
 E= -1339.24940421288     Delta-E=       -0.000000000112 Rises=F Damp=F
 DIIS: error= 1.26D-07 at cycle  14 NSaved=  14.
 NSaved=14 IEnMin=14 EnMin= -1339.24940421288     IErMin=14 ErrMin= 1.26D-07
 ErrMax= 1.26D-07  0.00D+00 EMaxC= 1.00D-01 BMatC= 1.58D-11 BMatP= 1.18D-10
 IDIUse=1 WtCom= 1.00D+00 WtEn= 0.00D+00
 Coeff-Com:  0.259D-06 0.403D-06-0.266D-05-0.463D-05-0.379D-04-0.185D-03
 Coeff-Com: -0.354D-03-0.544D-03-0.358D-03 0.654D-02 0.338D-01 0.919D-01
 Coeff-Com:  0.309D+00 0.561D+00
 Coeff:      0.259D-06 0.403D-06-0.266D-05-0.463D-05-0.379D-04-0.185D-03
 Coeff:     -0.354D-03-0.544D-03-0.358D-03 0.654D-02 0.338D-01 0.919D-01
 Coeff:      0.309D+00 0.561D+00
 Gap=     0.139 Goal=   None    Shift=    0.000
 RMSDP=1.57D-08 MaxDP=7.18D-07 DE=-1.12D-10 OVMax= 1.63D-06

 Cycle  15  Pass 1  IDiag  1:
 RMSU=  1.06D-08    CP:  9.76D-01  2.97D-01  7.89D-01  6.87D-01  6.06D-01
                    CP:  6.50D-01  7.08D-01  6.46D-01  7.15D-01  7.29D-01
                    CP:  7.38D-01  6.75D-01  7.34D-01  6.47D-01
 E= -1339.24940421287     Delta-E=        0.000000000008 Rises=F Damp=F
 DIIS: error= 6.51D-08 at cycle  15 NSaved=  15.
 NSaved=15 IEnMin=14 EnMin= -1339.24940421288     IErMin=15 ErrMin= 6.51D-08
 ErrMax= 6.51D-08  0.00D+00 EMaxC= 1.00D-01 BMatC= 3.51D-12 BMatP= 1.58D-11
 IDIUse=1 WtCom= 1.00D+00 WtEn= 0.00D+00
 Coeff-Com: -0.754D-07 0.265D-06-0.115D-05 0.456D-06-0.111D-04-0.693D-04
 Coeff-Com: -0.166D-03-0.345D-03-0.886D-03 0.545D-03 0.887D-02 0.320D-01
 Coeff-Com:  0.149D+00 0.379D+00 0.432D+00
 Coeff:     -0.754D-07 0.265D-06-0.115D-05 0.456D-06-0.111D-04-0.693D-04
 Coeff:     -0.166D-03-0.345D-03-0.886D-03 0.545D-03 0.887D-02 0.320D-01
 Coeff:      0.149D+00 0.379D+00 0.432D+00
 Gap=     0.139 Goal=   None    Shift=    0.000
 RMSDP=6.00D-09 MaxDP=3.18D-07 DE= 8.19D-12 OVMax= 6.21D-07

 Error on total polarization charges =  0.01503
 SCF Done:  E(RTPSSh) =  -1339.24940421     A.U. after   15 cycles
            NFock= 15  Conv=0.60D-08     -V/T= 2.0714
 KE= 1.249971192109D+03 PE=-6.759893459232D+03 EE= 2.343047353639D+03
 Leave Link  502 at Sun Feb  8 03:41:46 2026, MaxMem= 16106127360 cpu:            2073.1 elap:              38.3
 (Enter /home/software/g16-shuai/g16/l801.exe)
 DoSCS=F DFT=T ScalE2(SS,OS)=  1.000000  1.000000
 Range of M.O.s used for correlation:     1   367
 NBasis=   367 NAE=    80 NBE=    80 NFC=     0 NFV=     0
 NROrb=    367 NOA=    80 NOB=    80 NVA=   287 NVB=   287
 Leave Link  801 at Sun Feb  8 03:41:46 2026, MaxMem= 16106127360 cpu:               0.9 elap:               0.0
 (Enter /home/software/g16-shuai/g16/l1101.exe)
 Using compressed storage, NAtomX=    33.
 Will process     34 centers per pass.
   1 Symmetry operations used in ECPInt.
 ECPInt:  NShTT=   14028 NPrTT=   51030 LenC2=   12644 LenP2D=   32091.
 LDataN:  DoStor=T MaxTD1= 9 Len=  602
 Number of processors reduced to  44 by ecpmxn.
 R6Disp: Adding Grimme-D3(BJ) dispersion energy 1st derivatives to the gradient.
 Leave Link 1101 at Sun Feb  8 03:41:47 2026, MaxMem= 16106127360 cpu:              56.0 elap:               1.1
 (Enter /home/software/g16-shuai/g16/l1102.exe)
 Symmetrizing basis deriv contribution to polar:
 IMax=3 JMax=2 DiffMx= 0.00D+00
 Leave Link 1102 at Sun Feb  8 03:41:47 2026, MaxMem= 16106127360 cpu:               1.8 elap:               0.1
 (Enter /home/software/g16-shuai/g16/l1110.exe)
 Forming Gx(P) for the SCF density, NAtomX=    33.
 Integral derivatives from FoFJK, PRISM(SPDF).
 Do as many integral derivatives as possible in FoFJK.
 G2DrvN: MDV=   16106123825.
 G2DrvN: will do    34 centers at a time, making    1 passes.
 Calling FoFCou, ICntrl=  3107 FMM=F I1Cent=   0 AccDes= 0.00D+00.
 FoFJK:  IHMeth= 1 ICntrl=    3107 DoSepK=F KAlg= 0 I1Cent=           0 FoldK=F
 IRaf=         0 NMat=       1 IRICut=       1 DoRegI=T DoRafI=F ISym2E= 0 IDoP0=0 IntGTp=1.
 FoFCou: FMM=F IPFlag=           0 FMFlag=      100000 FMFlg1=           0
         NFxFlg=           0 DoJE=F BraDBF=F KetDBF=F FulRan=T
         wScrn=  0.000000 ICntrl=      3107 IOpCl=  0 I1Cent=           0 NGrid=           0
         NMat0=    1 NMatS0=      1 NMatT0=    0 NMatD0=    1 NMtDS0=    0 NMtDT0=    0
 Symmetry not used in FoFCou.
 Defaulting to unpruned grid for atomic number  78.
 Defaulting to unpruned grid for atomic number  78.
 Defaulting to unpruned grid for atomic number  78.
 Defaulting to unpruned grid for atomic number  78.
 Defaulting to unpruned grid for atomic number  78.
 Defaulting to unpruned grid for atomic number  78.
 Defaulting to unpruned grid for atomic number  78.
 Defaulting to unpruned grid for atomic number  78.
 Defaulting to unpruned grid for atomic number  78.
 Defaulting to unpruned grid for atomic number  78.
 Defaulting to unpruned grid for atomic number  78.
 Defaulting to unpruned grid for atomic number  78.
 Defaulting to unpruned grid for atomic number  78.
 Defaulting to unpruned grid for atomic number  78.
 Defaulting to unpruned grid for atomic number  78.
 Defaulting to unpruned grid for atomic number  78.
 Defaulting to unpruned grid for atomic number  78.
 Defaulting to unpruned grid for atomic number  78.
 Defaulting to unpruned grid for atomic number  78.
 Defaulting to unpruned grid for atomic number  78.
 Defaulting to unpruned grid for atomic number  78.
 Defaulting to unpruned grid for atomic number  78.
 Defaulting to unpruned grid for atomic number  78.
 Defaulting to unpruned grid for atomic number  78.
 Defaulting to unpruned grid for atomic number  78.
 Defaulting to unpruned grid for atomic number  78.
 Defaulting to unpruned grid for atomic number  78.
 Defaulting to unpruned grid for atomic number  78.
 Defaulting to unpruned grid for atomic number  78.
 Defaulting to unpruned grid for atomic number  78.
 Defaulting to unpruned grid for atomic number  78.
 Defaulting to unpruned grid for atomic number  78.
 Defaulting to unpruned grid for atomic number  78.
 Defaulting to unpruned grid for atomic number  78.
 Defaulting to unpruned grid for atomic number  78.
 Defaulting to unpruned grid for atomic number  78.
 Defaulting to unpruned grid for atomic number  78.
 Defaulting to unpruned grid for atomic number  78.
 Defaulting to unpruned grid for atomic number  78.
 Defaulting to unpruned grid for atomic number  78.
 Defaulting to unpruned grid for atomic number  78.
 Defaulting to unpruned grid for atomic number  78.
 Defaulting to unpruned grid for atomic number  78.
 Defaulting to unpruned grid for atomic number  78.
 Defaulting to unpruned grid for atomic number  78.
 Defaulting to unpruned grid for atomic number  78.
 Defaulting to unpruned grid for atomic number  78.
 Defaulting to unpruned grid for atomic number  78.
 Defaulting to unpruned grid for atomic number  78.
 Defaulting to unpruned grid for atomic number  78.
 Defaulting to unpruned grid for atomic number  78.
 Defaulting to unpruned grid for atomic number  78.
 Defaulting to unpruned grid for atomic number  78.
 Defaulting to unpruned grid for atomic number  78.
 Defaulting to unpruned grid for atomic number  78.
 Defaulting to unpruned grid for atomic number  78.
 NEqPCM:  Using equilibrium solvation (IEInf=0, Eps=   8.9300, EpsInf=   2.0283)
 G2PCM: DoFxE=T DoFxN=T DoGrad=T DoDP/DQ/DG/TGxP=FFFF NFrqRd=   0 IEInf=0 SqF1=F DoCFld=F IF1Alg=4.
 GePol: Maximum number of non-zero 1st derivatives   =     231
 End of G2Drv F.D. properties file   721 does not exist.
 End of G2Drv F.D. properties file   722 does not exist.
 End of G2Drv F.D. properties file   788 does not exist.
 Leave Link 1110 at Sun Feb  8 03:42:58 2026, MaxMem= 16106127360 cpu:            3974.5 elap:              71.3
 (Enter /home/software/g16-shuai/g16/l1002.exe)
 Minotr:  Closed shell wavefunction.
          IDoAtm=111111111111111111111111111111111
 NEqPCM:  Using equilibrium solvation (IEInf=0, Eps=   8.9300, EpsInf=   2.0283)
          Direct CPHF calculation.
          Differentiating once with respect to electric field.
                with respect to dipole field.
          Differentiating once with respect to nuclear coordinates.
          Requested convergence is 1.0D-08 RMS, and 1.0D-07 maximum.
          Secondary convergence is 1.0D-12 RMS, and 1.0D-12 maximum.
          NewPWx=T KeepS1=F KeepF1=F KeepIn=T MapXYZ=F SortEE=F KeepMc=T.
 Defaulting to unpruned grid for atomic number  78.
         9996 words used for storage of precomputed grid.
 Two-electron integral symmetry not used.
          MDV=   16106127360 using IRadAn=       1.
          Solving linear equations simultaneously, MaxMat=     336.
 FoF2E skips out because all densities are zero.
 CalDSu exits because no D1Ps are significant.
 FoFJK:  IHMeth= 1 ICntrl=       0 DoSepK=F KAlg= 0 I1Cent=           0 FoldK=F
 IRaf= 840000000 NMat=      99 IRICut=     247 DoRegI=T DoRafI=T ISym2E= 0 IDoP0=3 IntGTp=3.
 Defaulting to unpruned grid for atomic number  78.
 Defaulting to unpruned grid for atomic number  78.
 Defaulting to unpruned grid for atomic number  78.
 Defaulting to unpruned grid for atomic number  78.
 Defaulting to unpruned grid for atomic number  78.
 Defaulting to unpruned grid for atomic number  78.
 Defaulting to unpruned grid for atomic number  78.
 Defaulting to unpruned grid for atomic number  78.
 Defaulting to unpruned grid for atomic number  78.
 Defaulting to unpruned grid for atomic number  78.
 Defaulting to unpruned grid for atomic number  78.
 Defaulting to unpruned grid for atomic number  78.
 Defaulting to unpruned grid for atomic number  78.
 Defaulting to unpruned grid for atomic number  78.
 Defaulting to unpruned grid for atomic number  78.
 Defaulting to unpruned grid for atomic number  78.
 Defaulting to unpruned grid for atomic number  78.
 Defaulting to unpruned grid for atomic number  78.
 Defaulting to unpruned grid for atomic number  78.
 Defaulting to unpruned grid for atomic number  78.
 Defaulting to unpruned grid for atomic number  78.
 Defaulting to unpruned grid for atomic number  78.
 Defaulting to unpruned grid for atomic number  78.
 Defaulting to unpruned grid for atomic number  78.
 Defaulting to unpruned grid for atomic number  78.
 Defaulting to unpruned grid for atomic number  78.
 Defaulting to unpruned grid for atomic number  78.
 Defaulting to unpruned grid for atomic number  78.
 Defaulting to unpruned grid for atomic number  78.
 Defaulting to unpruned grid for atomic number  78.
 Defaulting to unpruned grid for atomic number  78.
 Defaulting to unpruned grid for atomic number  78.
 Defaulting to unpruned grid for atomic number  78.
 Defaulting to unpruned grid for atomic number  78.
 Defaulting to unpruned grid for atomic number  78.
 Defaulting to unpruned grid for atomic number  78.
 Defaulting to unpruned grid for atomic number  78.
 Defaulting to unpruned grid for atomic number  78.
 Defaulting to unpruned grid for atomic number  78.
 Defaulting to unpruned grid for atomic number  78.
 Defaulting to unpruned grid for atomic number  78.
 Defaulting to unpruned grid for atomic number  78.
 Defaulting to unpruned grid for atomic number  78.
 Defaulting to unpruned grid for atomic number  78.
 Defaulting to unpruned grid for atomic number  78.
 Defaulting to unpruned grid for atomic number  78.
 Defaulting to unpruned grid for atomic number  78.
 Defaulting to unpruned grid for atomic number  78.
 Defaulting to unpruned grid for atomic number  78.
 Defaulting to unpruned grid for atomic number  78.
 Defaulting to unpruned grid for atomic number  78.
 Defaulting to unpruned grid for atomic number  78.
 Defaulting to unpruned grid for atomic number  78.
 Defaulting to unpruned grid for atomic number  78.
 Defaulting to unpruned grid for atomic number  78.
 Defaulting to unpruned grid for atomic number  78.
          There are   102 degrees of freedom in the 1st order CPHF.  IDoFFX=6 NUNeed=     3.
     99 vectors produced by pass  0 Test12= 2.30D-14 1.00D-09 XBig12= 5.31D+02 1.29D+01.
 AX will form    99 AO Fock derivatives at one time.
     99 vectors produced by pass  1 Test12= 2.30D-14 1.00D-09 XBig12= 1.81D+02 2.36D+00.
     99 vectors produced by pass  2 Test12= 2.30D-14 1.00D-09 XBig12= 6.44D+00 5.14D-01.
     99 vectors produced by pass  3 Test12= 2.30D-14 1.00D-09 XBig12= 5.67D-02 2.24D-02.
     99 vectors produced by pass  4 Test12= 2.30D-14 1.00D-09 XBig12= 1.35D-04 1.69D-03.
     80 vectors produced by pass  5 Test12= 2.30D-14 1.00D-09 XBig12= 1.32D-07 3.30D-05.
     20 vectors produced by pass  6 Test12= 2.30D-14 1.00D-09 XBig12= 8.07D-11 1.19D-06.
      3 vectors produced by pass  7 Test12= 2.30D-14 1.00D-09 XBig12= 5.60D-14 4.12D-08.
 InvSVY:  IOpt=1 It=  1 EMax= 8.88D-15
 Solved reduced A of dimension   598 with   102 vectors.
 FullF1:  Do perturbations      1 to       3.
 Isotropic polarizability for W=    0.000000      319.28 Bohr**3.
 End of Minotr F.D. properties file   721 does not exist.
 End of Minotr F.D. properties file   722 does not exist.
 End of Minotr F.D. properties file   788 does not exist.
 Leave Link 1002 at Sun Feb  8 03:45:15 2026, MaxMem= 16106127360 cpu:            7650.2 elap:             137.3
 (Enter /home/software/g16-shuai/g16/l601.exe)
 Copying SCF densities to generalized density rwf, IOpCl= 0 IROHF=0.

 **********************************************************************

            Population analysis using the SCF Density.

 **********************************************************************

 Alpha  occ. eigenvalues -- -101.27916 -14.34825 -14.34754 -14.34147 -14.34078
 Alpha  occ. eigenvalues --  -10.19885 -10.19725 -10.18768 -10.18725 -10.18494
 Alpha  occ. eigenvalues --  -10.18469 -10.17371 -10.17251 -10.16984 -10.16931
 Alpha  occ. eigenvalues --  -10.15157 -10.15106 -10.14448 -10.12372  -9.30383
 Alpha  occ. eigenvalues --   -7.05594  -7.05160  -7.05056  -3.87199  -2.13815
 Alpha  occ. eigenvalues --   -2.13551  -2.10396  -0.97754  -0.97597  -0.89668
 Alpha  occ. eigenvalues --   -0.88898  -0.83163  -0.74476  -0.74319  -0.72124
 Alpha  occ. eigenvalues --   -0.71744  -0.71223  -0.69136  -0.68602  -0.63261
 Alpha  occ. eigenvalues --   -0.60100  -0.59780  -0.58227  -0.56089  -0.54661
 Alpha  occ. eigenvalues --   -0.53292  -0.50505  -0.48144  -0.46967  -0.46800
 Alpha  occ. eigenvalues --   -0.45492  -0.44945  -0.44908  -0.44206  -0.42456
 Alpha  occ. eigenvalues --   -0.41330  -0.40650  -0.40281  -0.40047  -0.39474
 Alpha  occ. eigenvalues --   -0.39386  -0.38560  -0.38024  -0.36487  -0.35530
 Alpha  occ. eigenvalues --   -0.33788  -0.32254  -0.30819  -0.29652  -0.29024
 Alpha  occ. eigenvalues --   -0.28455  -0.27460  -0.25854  -0.24701  -0.24320
 Alpha  occ. eigenvalues --   -0.22265  -0.21637  -0.20724  -0.19832  -0.19532
 Alpha virt. eigenvalues --   -0.05637  -0.05146  -0.01514  -0.00733  -0.00588
 Alpha virt. eigenvalues --    0.00735   0.02962   0.05289   0.06502   0.06867
 Alpha virt. eigenvalues --    0.07087   0.07590   0.08351   0.08873   0.09136
 Alpha virt. eigenvalues --    0.09752   0.09824   0.10626   0.11191   0.11699
 Alpha virt. eigenvalues --    0.12383   0.12804   0.13305   0.13888   0.14170
 Alpha virt. eigenvalues --    0.14542   0.15699   0.15900   0.16570   0.17152
 Alpha virt. eigenvalues --    0.18447   0.19278   0.21043   0.23628   0.26664
 Alpha virt. eigenvalues --    0.27019   0.27888   0.28759   0.30177   0.30317
 Alpha virt. eigenvalues --    0.31534   0.32803   0.33188   0.34809   0.35893
 Alpha virt. eigenvalues --    0.36280   0.37643   0.39268   0.39319   0.40292
 Alpha virt. eigenvalues --    0.40401   0.42160   0.42394   0.43373   0.43511
 Alpha virt. eigenvalues --    0.44008   0.44132   0.44592   0.45595   0.46248
 Alpha virt. eigenvalues --    0.47867   0.48361   0.48530   0.49694   0.50231
 Alpha virt. eigenvalues --    0.51604   0.53249   0.53789   0.54018   0.55270
 Alpha virt. eigenvalues --    0.55434   0.55979   0.57281   0.57773   0.58728
 Alpha virt. eigenvalues --    0.59994   0.60555   0.61984   0.62632   0.62982
 Alpha virt. eigenvalues --    0.63478   0.63761   0.64124   0.64760   0.64834
 Alpha virt. eigenvalues --    0.65068   0.66517   0.67004   0.67717   0.68033
 Alpha virt. eigenvalues --    0.68160   0.68542   0.68629   0.68787   0.69245
 Alpha virt. eigenvalues --    0.70230   0.70310   0.70875   0.72744   0.73494
 Alpha virt. eigenvalues --    0.73768   0.74657   0.77297   0.77551   0.78683
 Alpha virt. eigenvalues --    0.80694   0.80759   0.80903   0.82934   0.83445
 Alpha virt. eigenvalues --    0.85352   0.85385   0.85717   0.87163   0.88227
 Alpha virt. eigenvalues --    0.89014   0.90249   0.91105   0.92423   0.94503
 Alpha virt. eigenvalues --    0.95106   0.95184   0.99331   1.01069   1.03195
 Alpha virt. eigenvalues --    1.04409   1.04617   1.07222   1.07685   1.08245
 Alpha virt. eigenvalues --    1.09960   1.12580   1.13499   1.15715   1.18500
 Alpha virt. eigenvalues --    1.19682   1.20416   1.21033   1.22193   1.22891
 Alpha virt. eigenvalues --    1.23361   1.23791   1.23960   1.26331   1.27670
 Alpha virt. eigenvalues --    1.28484   1.30312   1.32225   1.32588   1.34282
 Alpha virt. eigenvalues --    1.36505   1.38164   1.38925   1.39876   1.40328
 Alpha virt. eigenvalues --    1.43550   1.43877   1.44507   1.45531   1.47505
 Alpha virt. eigenvalues --    1.50240   1.53108   1.53576   1.54143   1.54519
 Alpha virt. eigenvalues --    1.54854   1.55787   1.56877   1.60921   1.61293
 Alpha virt. eigenvalues --    1.62263   1.63170   1.63480   1.66023   1.67206
 Alpha virt. eigenvalues --    1.68344   1.68597   1.69764   1.69966   1.71174
 Alpha virt. eigenvalues --    1.72152   1.73140   1.73191   1.73484   1.75155
 Alpha virt. eigenvalues --    1.76605   1.77361   1.77448   1.78645   1.81791
 Alpha virt. eigenvalues --    1.82120   1.82977   1.83504   1.83931   1.85002
 Alpha virt. eigenvalues --    1.86059   1.88636   1.89050   1.89520   1.89862
 Alpha virt. eigenvalues --    1.91819   1.93348   1.93988   1.97049   1.99036
 Alpha virt. eigenvalues --    1.99732   2.00485   2.02313   2.02590   2.03259
 Alpha virt. eigenvalues --    2.03551   2.04213   2.06201   2.06688   2.06844
 Alpha virt. eigenvalues --    2.10840   2.10999   2.12755   2.15662   2.16153
 Alpha virt. eigenvalues --    2.16271   2.16755   2.17290   2.18400   2.19574
 Alpha virt. eigenvalues --    2.22263   2.22907   2.24070   2.25936   2.27088
 Alpha virt. eigenvalues --    2.28782   2.29179   2.29421   2.36335   2.37186
 Alpha virt. eigenvalues --    2.37251   2.37715   2.43761   2.43947   2.44839
 Alpha virt. eigenvalues --    2.46882   2.47445   2.48514   2.48893   2.53629
 Alpha virt. eigenvalues --    2.55775   2.56206   2.58169   2.59339   2.59688
 Alpha virt. eigenvalues --    2.60813   2.62499   2.64124   2.64756   2.66717
 Alpha virt. eigenvalues --    2.68412   2.69061   2.71474   2.71862   2.72042
 Alpha virt. eigenvalues --    2.74789   2.80441   2.80933   2.83967   2.84184
 Alpha virt. eigenvalues --    2.88374   2.89394   2.93543   2.96543   2.96824
 Alpha virt. eigenvalues --    2.97078   2.97868   3.00251   3.01587   3.03285
 Alpha virt. eigenvalues --    3.09019   3.12035   3.14214   3.21004   3.25162
 Alpha virt. eigenvalues --    3.27779   3.30877   3.45284   3.46756   3.59568
 Alpha virt. eigenvalues --   51.38104 282.85219
          Condensed to atoms (all electrons):
               1          2          3          4          5          6
     1  Pt  17.301257   0.211484  -0.067516  -0.069338   0.002516   0.002405
     2  C    0.211484   5.789914   0.316798   0.315794   0.037748   0.036475
     3  C   -0.067516   0.316798   5.028731   0.045203   0.302899  -0.135094
     4  C   -0.069338   0.315794   0.045203   5.025443  -0.134092   0.301933
     5  C    0.002516   0.037748   0.302899  -0.134092   5.170252   0.076829
     6  C    0.002405   0.036475  -0.135094   0.301933   0.076829   5.175036
[...]
 -0.00102863,-0.00000886,0.64256065,-0.01010160,0.00850644,-0.00014117,
 0.00078362,-0.00110641,0.00000821,0.00586862,-0.00619092,0.00002105,0.
 00009092,-0.00005146,0.00000162,-0.00309114,-0.00003148,-0.00005904,-0
 .00018329,0.00003657,-0.00000398,0.00022948,-0.00069016,-0.00000353,0.
 00007536,0.00029504,0.00001282,-0.00008717,-0.00000155,-0.00000232,-0.
 00027302,-0.00017543,-0.00000637,0.00481731,-0.00205984,0.00006462,0.0
 0011832,-0.00048067,-0.00000398,0.00009566,0.00011545,0.00000074,-0.07
 253881,-0.15208034,-0.00185660,0.08374866,-0.19027729,0.00013934,-0.00
 765841,0.00970641,-0.00001090,0.00004731,0.00012816,0.00001917,-0.0001
 0666,0.00005992,0.00000079,0.00000245,0.00000292,-0.00000621,0.0000041
 6,0.00002703,0.00000044,0.00000217,0.00000328,0.00000646,-0.01870998,-
 0.22332092,-0.00156194,-0.00602773,-0.02427903,-0.00028840,-0.00322259
 ,-0.02201625,0.00010463,-0.00319887,-0.02161093,-0.00066112,-0.0001230
 4,-0.00008192,-0.00000592,0.00105769,0.00129853,0.00003192,0.05692976,
 0.78326277,-0.00028670,-0.00013143,0.00393960,-0.00004507,-0.00002910,
 0.00029451,0.00007864,-0.00004415,0.00246228,0.00004015,0.00000416,-0.
 00006670,-0.00004536,0.00000432,0.00063047,-0.00001202,-0.00002276,0.0
 0004940,-0.00001597,-0.00000188,-0.00023202,0.00000318,0.00000050,-0.0
 0013378,-0.00000310,-0.00000204,0.00006828,-0.00000168,-0.00000301,-0.
 00008340,-0.00001093,0.00001619,-0.00073701,-0.00001610,-0.00000659,0.
 00000446,-0.00000199,-0.00000137,0.00010399,-0.00416272,-0.00211798,-0
 .06225713,-0.00138344,-0.00017481,-0.06049212,-0.00024357,0.00050420,-
 0.00269815,0.00001633,0.00000707,-0.00009676,0.00000094,-0.00000604,-0
 .00001727,-0.00000034,0.00000420,0.00000373,0.00000177,-0.00000055,-0.
 00001711,-0.00000196,-0.00000204,0.00000445,-0.00082531,-0.00159570,-0
 .06472697,0.00014390,0.00041194,-0.00150639,0.00186313,0.02712042,0.00
 652743,-0.00222696,-0.02837692,0.00607216,-0.00001657,0.00001895,0.000
 04112,0.00001087,0.00000225,-0.00050237,0.00800725,0.00628470,0.146776
 45,-0.00674346,0.01986440,0.00003999,-0.06855364,-0.02140499,-0.001399
 95,-0.19123774,-0.05686724,-0.00287186,0.00107266,0.00672937,-0.000017
 02,0.00305690,-0.00967636,-0.00006681,-0.00193975,-0.00358619,-0.00005
 832,0.00066556,0.00375582,-0.00003098,0.00001716,0.00076935,0.00005133
 ,-0.00012243,-0.00013874,0.00001326,0.00035951,0.00012707,-0.00000616,
 -0.00075838,-0.00398494,-0.00003982,-0.00011754,0.00098875,0.00000968,
 -0.00001780,0.00008061,0.00000025,-0.12128966,0.04955839,-0.00031556,-
 0.07266160,-0.06254323,-0.00187258,0.00100451,-0.00340297,-0.00010198,
 -0.00009840,0.00084424,-0.00001703,-0.00005807,-0.00010968,-0.00000199
 ,-0.00000985,0.00005472,0.00000221,-0.00003198,0.00002750,-0.00000025,
 -0.00000990,0.00005469,-0.00000121,-0.00385259,-0.00081877,-0.00015946
 ,-0.00016143,0.00017299,-0.00000054,0.00001337,-0.00013199,-0.00053045
 ,-0.00001752,-0.00016150,0.00053028,-0.00312357,-0.00070170,-0.0000549
 5,-0.00088012,0.00013672,-0.00001204,-0.02036135,-0.02160105,-0.000573
 06,0.77488545,0.02252791,-0.00824461,0.00028061,-0.00484675,0.00730805
 ,-0.00005626,-0.06100286,-0.16537620,-0.00223217,0.00790874,0.00164996
 ,0.00007671,-0.03968970,-0.02260188,-0.00086587,-0.00236293,-0.0045352
 4,-0.00007947,0.00445994,-0.00362175,-0.00003131,0.00043041,0.00227789
 ,0.00005836,-0.00022021,0.00023689,0.00001167,-0.00174698,-0.00080018,
 -0.00005095,-0.00156660,-0.00140159,-0.00002348,0.00034191,0.00140679,
 0.00001829,-0.00000200,0.00001631,-0.00000023,0.02411937,-0.24097416,-
 0.00109153,-0.01392515,-0.00943306,-0.00039406,-0.00048494,-0.00530296
 ,-0.00009519,0.00043760,-0.00056103,-0.00001470,-0.00001405,0.00002859
 ,-0.00000006,0.00002911,0.00000960,0.00001507,-0.00015906,0.00001502,-
 0.00000129,0.00002947,0.00000978,-0.00001426,-0.00591185,0.00440228,-0
 .00012327,-0.00041990,0.00029977,-0.00000222,-0.00002456,-0.00285362,0
 .00002587,-0.00003039,-0.00287353,-0.00007339,0.00078067,0.00164073,0.
 00003241,-0.00123160,-0.00006348,-0.00001886,-0.05904554,-0.07722263,-
 0.00165067,0.07123838,0.65294150,0.00002050,0.00020199,0.00366091,-0.0
 0119977,-0.00027911,0.00544655,-0.00282859,-0.00207029,-0.04687732,-0.
 00001382,0.00004843,0.00594707,-0.00040786,-0.00044063,0.00131064,-0.0
 0004080,-0.00007759,-0.00103966,-0.00001387,-0.00005061,0.00566364,0.0
 0005317,0.00006702,-0.00296050,0.00001061,0.00001030,-0.00087743,-0.00
 002775,-0.00001655,0.00087423,-0.00000695,-0.00006955,-0.00062950,0.00
 000135,0.00002643,0.00002183,-0.00000127,0.00000056,0.00006775,-0.0005
 3219,-0.00077983,-0.07412509,-0.00146126,-0.00113021,0.01390341,-0.000
 06699,-0.00014760,0.00514137,-0.00000465,0.00000992,0.00036384,-0.0000
 0041,-0.00000122,-0.00004252,0.00000061,0.00000454,0.00000298,-0.00000
 197,0.00000077,0.00000081,-0.00000050,-0.00000260,0.00000271,-0.000218
 84,-0.00002187,0.00636018,0.00000041,0.00000769,-0.00018086,-0.0006316
 0,-0.00097276,-0.00029855,0.00064237,0.00092390,-0.00024754,-0.0000399
 0,0.00000136,0.00008214,-0.00002501,0.00000200,0.00004089,-0.00089742,
 -0.00109351,0.00734453,0.01073252,0.00602905,0.12847869,-0.00232521,-0
 .00220280,-0.00009978,0.00505386,0.00325953,0.00008470,-0.03037943,-0.
 00593201,-0.00044056,-0.00361452,-0.00093414,-0.00007994,0.00362714,0.
 00157637,0.00006645,0.00088093,0.00227440,0.00004357,0.00067210,-0.000
 03927,0.00001214,0.00003986,0.00004358,0.00001958,0.00010175,-0.000020
 83,0.00000154,0.00030879,0.00028086,0.00000865,0.00151555,0.00227166,0
 .00004644,-0.00004978,-0.00092702,-0.00001098,-0.00003477,-0.00007213,
 -0.00000138,-0.02944718,0.06494936,-0.00004966,-0.15843165,-0.13368038
 ,-0.00263202,-0.00019512,-0.02114964,-0.00020334,-0.00018660,-0.000276
 42,0.00000600,0.00005440,-0.00021998,-0.00000059,-0.00002111,0.0000403
 5,-0.00002265,0.00003940,-0.00000853,0.00000004,-0.00002154,0.00004038
 ,0.00002348,-0.00748777,0.00299282,-0.00012102,0.00050574,0.00149606,0
 .00001786,-0.00001196,-0.00150174,0.00017145,-0.00000985,-0.00150667,-
 0.00019170,0.00113668,-0.00157924,0.00000414,-0.00004105,0.00005992,-0
 .00000315,0.00666024,-0.00219886,-0.00014139,-0.28253310,0.02776005,-0
 .00327368,0.59950776,-0.00152879,-0.00299536,-0.00006129,-0.00297000,-
 0.00430447,-0.00010804,-0.01977616,0.01608180,-0.00005787,-0.00120939,
 0.00130573,-0.00001680,0.00031843,0.00074332,-0.00005832,0.00007939,0.
 00006909,0.00000279,0.00034902,-0.00001973,0.00000480,0.00009757,-0.00
 044761,-0.00002852,0.00000526,-0.00001455,0.00000108,-0.00003076,-0.00
 002805,-0.00000092,0.00118893,0.00040738,0.00002810,0.00010522,0.00004
 888,0.00000108,0.00001084,0.00003524,0.00000061,0.01970439,-0.03245763
 ,-0.00010045,-0.13955951,-0.38038112,-0.00495488,0.00284628,0.00617291
 ,0.00008709,0.00034760,0.00030744,0.00000871,0.00000077,-0.00002933,0.
 00000022,0.00000949,0.00001582,-0.00000185,-0.00004880,0.00000126,-0.0
 0000041,0.00000935,0.00001603,0.00000258,0.00446410,0.00338352,0.00007
 650,-0.00076467,-0.00129977,-0.00002941,-0.00062062,-0.00083001,0.0004
 7320,-0.00061048,-0.00083295,-0.00050378,0.00006308,-0.00052145,-0.000
 00280,-0.00019887,0.00034219,-0.00000136,0.04648863,-0.07927429,-0.000
 10847,0.03244647,-0.13053239,-0.00021786,-0.04773280,0.92809087,-0.000
 06394,-0.00006713,0.00107693,0.00003569,-0.00001436,0.00127438,-0.0006
 2850,0.00011844,-0.00510613,-0.00008318,-0.00001232,0.00113517,0.00007
 193,-0.00003499,0.00010478,0.00001539,0.00003327,-0.00004377,0.0000095
 7,-0.00000176,0.00009506,-0.00000857,-0.00002953,-0.00027772,0.0000031
 6,0.00000077,-0.00009569,0.00000418,0.00000374,0.00000376,0.00003849,0
 .00003926,-0.00026475,0.00000004,-0.00001285,0.00005272,-0.00000033,-0
 .00000062,-0.00000887,-0.00048084,0.00058366,0.01379199,-0.00269168,-0
 .00487742,-0.06201723,0.00001244,-0.00027240,0.00071626,0.00000124,-0.
 00000137,-0.00008456,0.00000096,-0.00000342,-0.00001082,0.00000245,0.0
 0000253,-0.00000116,-0.00000008,-0.00000022,-0.00000497,-0.00000293,-0
 .00000088,-0.00000053,-0.00009608,0.00006575,0.00172114,-0.00000680,0.
 00000642,0.00040917,-0.00010395,-0.00025687,0.00000308,0.00009028,0.00
 019990,-0.00000586,0.00002083,-0.00002573,-0.00022280,-0.00000465,0.00
 000393,0.00004757,0.00030160,-0.00083916,0.01329646,-0.00318300,-0.000
 27724,-0.05442065,0.00704204,0.00651814,0.11356985,-0.00225796,0.00219
 322,-0.00004189,0.00504956,-0.00341658,0.00004616,-0.00357716,0.001014
 79,-0.00007051,-0.02991841,0.00669236,-0.00029601,0.00084324,-0.002286
 95,-0.00000923,0.00360844,-0.00163855,0.00006116,0.00066698,0.00002938
 ,0.00000893,0.00009786,0.00002078,0.00000429,0.00005576,-0.00003719,0.
 00000678,0.00030375,-0.00028685,0.00000104,-0.03084838,-0.06495708,-0.
 00124547,-0.15403258,0.12995034,0.00007332,0.00011044,0.02123763,0.000
 20914,0.00145776,-0.00228843,0.00001179,-0.00003565,0.00092861,0.00000
 686,-0.00003373,0.00007336,-0.00000014,-0.00019285,0.00028318,0.000000
 05,-0.00760613,-0.00281510,-0.00012885,0.00002783,0.00149201,-0.000157
 67,0.00049700,-0.00152564,-0.00002091,0.00001953,0.00149017,0.00019103
 ,0.00005751,0.00021790,0.00000340,0.00004095,0.00000806,0.00000060,-0.
 00002249,-0.00003974,0.00002223,-0.00002163,-0.00003942,-0.00002379,-0
 .28329595,-0.02516875,-0.00356642,0.00591510,0.00076853,-0.00014747,-0
 .00003750,-0.00005330,-0.00000319,0.00116183,0.00155144,0.00003313,-0.
 00141737,0.00003342,-0.00002038,0.60099704,0.00152362,-0.00305790,-0.0
 0001422,0.00281560,-0.00429660,-0.00001644,0.00129016,0.00126888,0.000
 03050,0.02055302,0.01564582,0.00046802,-0.00009288,0.00010874,0.000000
 18,-0.00040445,0.00063900,-0.00000676,-0.00036071,-0.00001522,-0.00000
 596,-0.00000758,-0.00001473,0.00000074,-0.00010869,-0.00042176,-0.0000
 0131,0.00002514,-0.00002384,0.00000050,-0.01973235,-0.03103229,-0.0007
 4940,0.13581709,-0.38490771,-0.00143766,-0.00274581,0.00585969,0.00001
 616,-0.00120778,0.00046507,-0.00001292,-0.00010360,0.00003506,-0.00000
 169,-0.00000968,0.00003419,0.00000037,-0.00034146,0.00030705,0.0000015
 7,-0.00428199,0.00350589,-0.00004405,0.00059217,-0.00085871,0.00048964
 ,0.00073925,-0.00128624,-0.00001442,0.00061240,-0.00087307,-0.00049422
 ,-0.00000220,-0.00003331,-0.00000033,0.00004803,0.00000018,0.00000135,
 -0.00000864,0.00001672,-0.00000262,-0.00000891,0.00001684,0.00000267,-
 0.02982467,-0.12950255,-0.00113377,-0.04789204,-0.07848526,-0.00159697
 ,0.00020542,0.00033993,0.00000592,-0.00009091,-0.00054614,-0.00000540,
 -0.00000661,0.00018813,0.00000120,0.05310137,0.92621004,-0.00003359,-0
 .00000326,0.00107667,0.00006672,-0.00009596,0.00127283,-0.00006287,0.0
 0002022,0.00113618,-0.00020149,0.00028524,-0.00508089,0.00001236,-0.00
 003803,-0.00004389,0.00006301,-0.00001639,0.00005379,0.00000670,0.0000
 0154,0.00009262,0.00000280,0.00000151,-0.00009560,0.00000640,-0.000002
 82,-0.00026687,0.00000435,-0.00000447,0.00000355,-0.00080335,-0.001364
 79,0.01377130,0.00012165,-0.00150636,-0.06197981,-0.00003644,0.0003460
 1,0.00072251,0.00000754,-0.00002286,-0.00026616,-0.00000268,0.00001287
 ,0.00005299,-0.00000038,0.00000135,-0.00000887,-0.00000387,0.00000637,
 -0.00008470,-0.00018878,-0.00002024,0.00172006,0.00010359,-0.00021273,
 0.00000112,0.00001114,-0.00004314,0.00040864,-0.00008218,0.00024760,-0
 .00000154,0.00000086,0.00000220,-0.00001077,0.00000135,0.00000006,-0.0
 0000496,-0.00000303,0.00000157,-0.00000063,0.00000232,-0.00000193,-0.0
 0000109,-0.00351862,-0.00110765,-0.05440622,-0.00061409,-0.00093021,0.
 01328179,0.00000280,0.00000302,0.00004785,0.00001534,0.00001708,-0.000
 22244,-0.00001927,0.00000155,0.00001481,0.00740824,0.00910120,0.113586
 05,0.00014301,0.00077112,-0.00000558,-0.00011898,0.00029146,0.00000189
 ,0.00189101,0.00054374,0.00005638,-0.00001082,0.00008518,0.00000011,-0
 .00037180,0.00028439,-0.00005457,0.00008878,-0.00003540,0.00000242,0.0
 0004696,-0.00032198,-0.00000264,-0.00067101,-0.00040220,-0.00013247,0.
 00003366,-0.00002550,-0.00000004,0.00000610,0.00001684,-0.00000023,0.0
 0001803,-0.00003277,0.00000363,-0.00001863,-0.00003898,-0.00000062,-0.
 00000595,-0.00000774,-0.00000028,-0.00570811,-0.00232509,-0.00016490,0
 .01294869,-0.01061260,0.00009127,-0.00009660,0.00077182,0.00005408,0.0
 0004805,0.00000256,0.00000184,0.00000555,-0.00001743,0.,-0.00000224,0.
 00000361,-0.00000106,0.00000069,-0.00000269,-0.00000002,-0.00000227,0.
 00000362,0.00000110,0.00125417,-0.00001062,-0.00000004,-0.00013169,-0.
 00037232,-0.00000484,-0.00002679,0.00002986,0.00002030,-0.00002234,0.0
 0002269,-0.00001992,0.00000033,-0.00009189,-0.00000125,-0.00001078,-0.
 00004187,-0.00000081,-0.00111568,-0.00474006,-0.00014872,-0.00766547,0
 .03097155,0.00019995,-0.10381638,0.10644808,-0.00027455,-0.00007633,-0
 .00003289,-0.00000149,0.10339873,-0.00003969,0.00009572,-0.00000823,0.
 00010791,0.00007037,0.00000202,-0.00010576,-0.00047707,0.00000416,-0.0
 0004262,-0.00005586,-0.00000139,-0.00026718,0.00023784,-0.00002500,0.0
 0000005,0.00004541,0.00000086,0.00000306,-0.00005280,0.00000100,-0.000
 18422,-0.00019796,-0.00005831,0.00000788,-0.00000446,-0.00000030,0.000
 01502,0.00001416,0.00000009,-0.00002226,-0.00000657,0.00000244,0.00001
 027,-0.00001894,-0.00000009,0.00000120,-0.00000008,-0.00000009,-0.0013
 5543,0.00092371,-0.00004374,0.01321666,-0.00667094,0.00013672,-0.00024
 291,0.00039261,0.00002753,0.00003840,-0.00000289,0.00000113,0.00000103
 ,0.00000933,0.00000017,0.00000176,-0.00000194,0.00000055,-0.00000599,-
 0.00000074,-0.00000006,0.00000173,-0.00000191,-0.00000057,0.00100578,0
 .00007903,0.00000574,-0.00020723,-0.00030969,-0.00000603,-0.00001932,0
 .00001361,0.00000635,-0.00001648,0.00000927,-0.00000651,0.00003506,-0.
 00002682,0.00000009,0.00003201,0.00000182,0.00000042,-0.00213176,-0.00
 283304,-0.00010880,-0.00159574,0.00472700,0.00004413,0.11292028,-0.323
 23668,-0.00084899,-0.00002353,-0.00000340,-0.00000040,-0.12113623,0.32
 727962,-0.00001406,0.00000236,0.00095088,-0.00000056,0.00000784,0.0000
 0789,0.00004683,0.00001648,-0.00123574,-0.00000351,0.00000068,0.000027
 20,-0.00006000,0.00001511,-0.00006655,0.00000345,0.00000195,-0.0000161
 2,0.00000644,-0.00000881,-0.00013997,-0.00011149,-0.00006752,0.0004032
 1,0.00000089,-0.00000105,0.00003110,0.00000014,0.00000075,0.00002684,0
 .00000544,0.00000278,-0.00031299,0.00000039,-0.00000167,0.00000157,-0.
 00000019,-0.00000026,0.00001269,-0.00015211,-0.00005155,0.00368319,0.0
 0030929,-0.00023074,0.00081467,0.00004366,0.00004224,-0.00315725,0.000
 00247,-0.00000152,-0.00005542,0.00000029,0.00000041,-0.00000919,-0.000
 00223,0.00000127,-0.00000063,-0.00000033,-0.00000007,0.00000242,0.0000
 0236,-0.00000142,-0.00000067,0.00001343,-0.00001028,0.00125223,-0.0000
 0481,-0.00001048,-0.00004168,0.00011858,-0.00020672,-0.00003851,-0.000
 11848,0.00020899,-0.00003962,0.00000155,-0.00000361,0.00002331,0.00000
 145,-0.00000068,0.00001199,-0.00013197,-0.00015594,0.00588804,-0.00007
 940,0.00053058,-0.00281541,-0.00025598,-0.00095368,-0.02475041,-0.0000
 0250,-0.00000061,0.00000271,0.00038137,0.00087520,0.01952679,0.0001356
 9,-0.00076942,-0.00001935,-0.00012675,-0.00029070,-0.00000543,-0.00001
 784,-0.00008998,-0.00000097,0.00188888,-0.00059187,0.00003945,0.000096
 45,0.00003203,0.00000208,-0.00037760,-0.00029234,-0.00003410,0.0000607
 0,0.00034075,0.00000649,0.00003701,0.00002612,0.00000054,-0.00053294,0
 .00039149,-0.00002639,0.00000553,-0.00001818,-0.00000041,-0.00564931,0
 .00243443,-0.00010808,0.01291793,0.01028841,0.00027512,-0.00010507,-0.
 00076071,0.00003461,0.00001639,0.00002673,0.00000511,-0.00001532,0.000
 04179,0.00000008,-0.00000569,0.00000799,-0.00000017,0.00004756,0.00000
 294,0.00000114,0.00124080,-0.00001358,-0.00000346,-0.00002339,-0.00002
 214,-0.00002011,-0.00012325,0.00037001,0.00000420,-0.00002763,-0.00002
 704,0.00002042,0.00000560,0.00001483,0.00000040,0.00000031,0.00000284,
 -0.00000006,-0.00000214,-0.00000305,0.00000082,-0.00000203,-0.00000299
 ,-0.00000092,-0.00814958,-0.03073238,-0.00039285,-0.00099527,0.0047275
 3,-0.00004544,-0.00000515,0.00004410,-0.00000001,0.00000840,0.00009853
 ,0.00000048,-0.00007979,0.00003452,-0.00000084,-0.10753643,-0.11005941
 ,-0.00226504,-0.00001187,-0.00000174,-0.00000043,0.10732578,0.00004020
 ,0.00010878,-0.00000750,-0.00010466,0.00007660,-0.00000125,0.00004015,
 -0.00005627,-0.00000048,0.00006889,-0.00047015,0.00000895,0.00000127,0
 .00004404,0.00000089,0.00028401,0.00021267,0.00001374,-0.00000262,-0.0
 0005200,0.00000061,-0.00000734,-0.00000446,-0.00000046,0.00018818,-0.0
 0008666,0.00000624,-0.00001463,0.00001413,-0.00000045,0.00146780,0.000
 85638,-0.00000972,-0.01355637,-0.00663428,-0.00026841,0.00025100,0.000
 40301,0.00004042,0.00002119,-0.00000917,0.00000324,-0.00000950,-0.0000
 1859,-0.00000028,-0.00000107,-0.00000015,-0.00000016,-0.00003958,-0.00
 000041,0.00000027,-0.00102525,0.00009394,-0.00002191,0.00001973,0.0000
 1439,0.00000710,0.00020487,-0.00031917,-0.00000165,0.00001692,0.000009
 36,-0.00000622,-0.00000102,0.00000839,0.00000011,0.00000586,-0.0000008
 6,0.00000014,-0.00000170,-0.00000169,0.00000045,-0.00000163,-0.0000016
 7,-0.00000054,0.00180849,0.00522888,0.00010612,0.00210432,-0.00294674,
 -0.00006538,-0.00003032,0.00000213,-0.00000052,-0.00003344,-0.00002572
 ,-0.00000092,0.00002344,-0.00000424,0.00000026,-0.11650943,-0.31928251
 ,-0.00467815,0.00000174,0.00000230,-0.00000005,0.12479049,0.32283976,-
 0.00001641,-0.00001919,0.00095119,-0.00000273,-0.00000202,0.00000764,0
 .00000062,-0.00000274,0.00002731,0.00004722,-0.00000158,-0.00123667,0.
 00000196,0.00000141,-0.00001688,-0.00002290,-0.00001417,-0.00003554,0.
 00000315,0.00000655,-0.00013769,-0.00000002,0.00000003,0.00003081,-0.0
 0002885,0.00001187,0.00047297,-0.00000046,-0.00000045,0.00002692,-0.00
 010861,0.00000030,0.00368535,0.00003388,0.00006857,0.00081838,0.000044
 52,0.00002655,-0.00315787,0.00000571,0.00000241,-0.00031319,-0.0000003
 3,0.00000045,0.00000162,-0.00000027,0.,0.00001268,0.00000041,0.0000002
 0,-0.00005572,-0.00001000,-0.00001589,0.00125128,-0.00012162,-0.000204
 35,-0.00004304,0.00000212,0.00000021,-0.00004178,0.00012196,0.00020697
 ,-0.00003509,0.00000023,0.00000029,-0.00000936,-0.00000007,-0.00000002
 ,0.00000248,0.00000228,0.00000127,-0.00000060,-0.00000235,-0.00000131,
 -0.00000067,-0.00004380,-0.00034162,-0.00283207,-0.00008305,-0.0000194
 9,0.00588992,-0.00000026,0.00000058,0.00001197,-0.00000044,0.00000078,
 0.00002332,-0.00000100,0.00000023,0.00000281,-0.00235374,-0.00458124,-
 0.02477101,-0.00000027,-0.00000010,0.00001343,0.00253312,0.00487552,0.
 01945713\\-0.00000073,0.00000068,-0.00000062,0.00000070,0.00000043,0.0
 0000042,0.00000146,0.00000063,0.00000163,0.00000105,-0.00000126,-0.000
 00022,0.00000237,0.00000087,0.00000227,0.00000227,-0.00000095,0.000000
 37,0.00000286,-0.00000009,0.00000161,0.00000286,0.00000165,0.00000324,
 0.00000273,-0.00000164,-0.00000011,0.00000374,-0.00000006,0.00000209,0
 .,-0.00000198,-0.00000173,-0.00000029,-0.00000321,-0.00000322,-0.00000
 032,-0.00000407,-0.00000433,-0.00000112,0.00000107,0.00000129,0.,0.000
 00335,0.00000313,-0.00000057,0.00000414,0.00000365,-0.00000313,-0.0000
 0064,-0.00000205,-0.00000024,-0.00000206,-0.00000367,-0.00000098,-0.00
 000358,-0.00000428,-0.00000332,-0.00000113,-0.00000306,-0.00000284,-0.
 00000298,-0.00000436,-0.00000487,0.00000347,0.00000107,-0.00000025,0.0
 0000295,0.00000155,-0.00000242,0.00000236,0.00000195,-0.00000349,0.000
 00320,0.00000165,0.00000055,-0.00000149,-0.00000132,-0.00000226,-0.000
 00285,-0.00000327,0.00000084,0.00000200,0.00000162,0.00000084,0.000002
 46,0.00000229,0.00000075,0.00000208,0.00000317,0.00000068,-0.00000328,
 -0.00000237,0.00000143,0.00000316,0.00000391,0.00000169,-0.00000325,-0
 .00000228\\\@


 I KNOW YOU BELIEVE YOU UNDERSTAND WHAT YOU THINK I SAID,
 BUT I AM NOT SURE YOU REALIZE THAT WHAT YOU HEARD IS NOT WHAT I MEANT.
 Job cpu time:       1 days 18 hours  1 minutes 29.8 seconds.
 Elapsed time:       0 days  0 hours 45 minutes 32.0 seconds.
 File lengths (MBytes):  RWF=    668 Int=      0 D2E=      0 Chk=     28 Scr=      1
 Normal termination of Gaussian 16 at Sun Feb  8 04:26:40 2026.
